================================================================================
Start SP Molcas calculation of STEP : 0
 ||  ||  ||  ||  ||  ||  ||  ||  ||  ||  ||  ||  ||  ||  ||  ||  ||  ||  ||  || 
 \/  \/  \/  \/  \/  \/  \/  \/  \/  \/  \/  \/  \/  \/  \/  \/  \/  \/  \/  \/ 
   This run of MOLCAS is using the pymolcas driver

                             OPE
                             OPE          NMOL  CASOP  ENMOLC A   SO
                 OPE        NMOLC        AS  OP EN  MO LC     AS  OP
                OPENM       OL CA        SO  PE NM  OL CA     SOP EN
                OP EN      MO   LC       AS  OP ENMOL  CASO   PENMOL
                OP  EN     MO   LC       AS  OP EN     MO     LC ASO
               OP   E  NMOL  C  AS       OP  EN MO     LC     AS  OP
               OP  E   NMO   LC AS        OPEN  MO     LCASOP EN   M
               O  PEN   MO  LCA  SO
            OPE   NMO   L   CAS    OP
        OPENMOL  CASOP     ENMOL   CASOPE
     OPENMOLCA   SOPENMOLCASOPEN   MOLCASOPE
    OPENMOLCAS   OP           EN   MOL    CAS
    OPENMOLCAS       OP  ENM        O     LCA
    OPENMOLCAS    OPEN  MOLCASO     P  E  NMO
    OPENMOLCAS     OP               E  N  MOL
    OPENMOLCA   SO           PENM   O  L  CAS    OPEN    MO    LCAS
    OPENMOLCA   SOP           ENM   O  L  CAS   OP  EN  MOLC  AS   O
    OPENMOLCA   SOPE           NM      O  LCA   S      OP  EN MO
    OPENMOLC                AS         O  PEN   M      OL  CA  SOPE
    OPENMO        LCASOPE  NMOL        C  ASO   P      ENMOLC     AS
    OPE     NMO      LCA  SO     P     E   NM   OL  CA SO  PE N   MO
          OPENMOLCA            SOPE   NMO        LCAS  O    P  ENMO
     OPENMOLCASOPENMOLCASOPENMOLCASOPENMOLCA
        OPENMOLCASOPENMOLCASOPENMOLCASOPE
            OPENMOLCASOPENMOLCASOPENM
               OPENMOLCASOPENMOLCA        version:
                   OPENMOLCASO
                       OPE                tag:

 OpenMolcas is free software; you can redistribute it and/or modify it
 under the terms of the GNU Lesser General Public License version 2.1.
 OpenMolcas is distributed in the hope that it will be useful, but it
 is provided "as is" and without any express or implied warranties.
 For more details see the full text of the license in the file
 LICENSE or in <http://www.gnu.org/licenses/>.

                 Copyright (C) The OpenMolcas Authors
           For the author list and the recommended citation,
                   consult the file CONTRIBUTORS.md

           *************************************************
           * pymolcas version py2.18                       *
           *   build 603b35e74725da5e9c3ba4c5da34d86f      *
           *   (after the EMIL interpreter by V. Veryazov) *
           *************************************************

configuration info
------------------
Host name: manganese.itc.univie.ac.at (Linux)
C Compiler ID: Intel
C flags: -std=gnu99
Fortran Compiler ID: Intel
Fortran flags: -fpp -i8 -r8 -heap-arrays
Definitions: _MOLCAS_;_I8_;_LINUX_
Parallel: OFF (GA=OFF)


   -----------------------------------------------------------------------------------------------------------
  |
  |           Project: molcas
  |    Submitted from: /projects/academic/cyberwksp21/Students/davagliano/cobramm/Rh-Tutorial/HF-STO-sp
  |      Scratch area: /projects/academic/cyberwksp21/Students/davagliano/cobramm/Rh-Tutorial/HF-STO-sp/MOLCAS
  |   Save outputs to: WORKDIR
  |            Molcas: /projects/academic/cyberwksp21/Software/openmolcas_V21.10
  |
  | Scratch area is empty
  |
  |    MOLCAS_DRIVER = /projects/academic/cyberwksp21/Software/openmolcas_V21.10/bin/pymolcas
  |    MOLCAS_MOLDEN = ON
  |    MOLCAS_NPROCS = 1
  |    MOLCAS_SCRIPT = /projects/academic/cyberwksp21/Software/openmolcas_V21.10/bin/pymolcas
  |    MOLCAS_SOURCE = /projects/academic/cyberwksp21/Software/openmolcas_V21.10
  | MOLCAS_STRUCTURE = 0
  |
   -----------------------------------------------------------------------------------------------------------

++ ---------   Input file   ---------

&SEWARD
Title
 COBRAM
RICD
CDTH
1.0E-4
Doana
Basis set
C.STO-3G.Hehre.6s3p.2s1p.

 C1       1.11493841   -4.54479133  -31.46582970
Spherical all
End of Basis
Basis set
H.STO-3G.Hehre.3s.1s.

 H2       1.71398159   -3.12938646  -30.11089607
Spherical all
End of Basis
Basis set
H.STO-3G.Hehre.3s.1s.

 H3       0.37227605   -6.14727908  -30.43214951
Spherical all
End of Basis
Basis set
N.STO-3G.Hehre.6s3p.2s1p.

 N4      -0.88439183   -3.50355223  -32.96438252
Spherical all
End of Basis
Basis set
H.STO-3G.Hehre.3s.1s.

 H5      -0.48376989   -3.72653992  -34.79174768
Spherical all
End of Basis
Basis set
C.STO-3G.Hehre.6s3p.2s1p.

 C6      -2.92340631   -2.42451862  -32.43336948
Spherical all
End of Basis
Basis set
H.STO-3G.Hehre.3s.1s.

 H7      -4.13472076   -1.80090900  -33.93192229
Spherical all
End of Basis
Basis set
C.STO-3G.Hehre.6s3p.2s1p.

 C8      -3.66039950   -2.01066860  -29.73295084
Spherical all
End of Basis
Basis set
H.STO-3G.Hehre.3s.1s.

 H9      -3.05946660   -3.08025358  -28.11912473
Spherical all
End of Basis
Basis set
C.STO-3G.Hehre.6s3p.2s1p.

 C10      -5.15706259   -0.07369932  -29.33421863
Spherical all
End of Basis
Basis set
C.STO-3G.Hehre.6s3p.2s1p.

 C11      -6.01310853    1.50611172  -31.52819066
Spherical all
End of Basis
Basis set
H.STO-3G.Hehre.3s.1s.

 H12      -5.28745370    0.88439183  -33.32532021
Spherical all
End of Basis
Basis set
H.STO-3G.Hehre.3s.1s.

 H13      -5.41973453    3.44686045  -31.25795983
Spherical all
End of Basis
Basis set
H.STO-3G.Hehre.3s.1s.

 H14      -8.05779220    1.48154528  -31.64535368
Spherical all
End of Basis
Basis set
C.STO-3G.Hehre.6s3p.2s1p.

 C15      -6.01499825    0.44786509  -26.76608083
Spherical all
End of Basis
Basis set
H.STO-3G.Hehre.3s.1s.

 H16      -5.14383451   -0.29857673  -25.08989376
Spherical all
End of Basis
Basis set
C.STO-3G.Hehre.6s3p.2s1p.

 C17      -8.01243877    1.95397681  -26.51285753
Spherical all
End of Basis
Basis set
H.STO-3G.Hehre.3s.1s.

 H18      -9.01966279    2.85726590  -28.02463843
Spherical all
End of Basis
Basis set
C.STO-3G.Hehre.6s3p.2s1p.

 C19      -8.89305114    2.39617273  -23.92015328
Spherical all
End of Basis
Basis set
H.STO-3G.Hehre.3s.1s.

 H20      -8.15416823    1.26611650  -22.40081348
Spherical all
End of Basis
Basis set
C.STO-3G.Hehre.6s3p.2s1p.

 C21     -10.64482726    4.15739747  -23.34567654
Spherical all
End of Basis
Basis set
C.STO-3G.Hehre.6s3p.2s1p.

 C22     -11.75598622    5.84681263  -25.36012459
Spherical all
End of Basis
Basis set
H.STO-3G.Hehre.3s.1s.

 H23     -11.01710331    5.48020576  -27.22339455
Spherical all
End of Basis
Basis set
H.STO-3G.Hehre.3s.1s.

 H24     -11.37993072    7.81023807  -24.91225950
Spherical all
End of Basis
Basis set
H.STO-3G.Hehre.3s.1s.

 H25     -13.78933153    5.60681741  -25.43382391
Spherical all
End of Basis
Basis set
C.STO-3G.Hehre.6s3p.2s1p.

 C26     -11.40449716    4.41251050  -20.66415517
Spherical all
End of Basis
Basis set
H.STO-3G.Hehre.3s.1s.

 H27     -10.14027038    3.76055499  -19.21095578
Spherical all
End of Basis
Basis set
C.STO-3G.Hehre.6s3p.2s1p.

 C28     -13.61925618    5.44997014  -19.98007432
Spherical all
End of Basis
Basis set
H.STO-3G.Hehre.3s.1s.

 H29     -14.96474118    6.19830169  -21.30666205
Spherical all
End of Basis
Basis set
C.STO-3G.Hehre.6s3p.2s1p.

 C30     -14.29766786    5.68996536  -17.27020705
Spherical all
End of Basis
Basis set
C.STO-3G.Hehre.6s3p.2s1p.

 C31     -14.30522676    3.36371250  -15.53543847
Spherical all
End of Basis
Basis set
C.STO-3G.Hehre.6s3p.2s1p.

 C32     -15.30300216    0.98832676  -16.85068785
Spherical all
End of Basis
Basis set
H.STO-3G.Hehre.3s.1s.

 H33     -14.31845485    0.63683770  -18.61758178
Spherical all
End of Basis
Basis set
H.STO-3G.Hehre.3s.1s.

 H34     -17.31367075    1.09037197  -17.24186116
Spherical all
End of Basis
Basis set
H.STO-3G.Hehre.3s.1s.

 H35     -15.01198433   -0.64439661  -15.64126313
Spherical all
End of Basis
Basis set
C.STO-3G.Hehre.6s3p.2s1p.

 C36     -11.62937457    2.73065425  -14.68317199
Spherical all
End of Basis
Basis set
H.STO-3G.Hehre.3s.1s.

 H37     -11.64638211    1.12438704  -13.40571713
Spherical all
End of Basis
Basis set
H.STO-3G.Hehre.3s.1s.

 H38     -10.77332864    4.30668584  -13.69295550
Spherical all
End of Basis
Basis set
H.STO-3G.Hehre.3s.1s.

 H39     -10.41806012    2.26389190  -16.27054193
Spherical all
End of Basis
Basis set
C.STO-3G.Hehre.6s3p.2s1p.

 C40     -15.80377958    3.73598855  -13.11469930
Spherical all
End of Basis
Basis set
H.STO-3G.Hehre.3s.1s.

 H41     -15.29355353    2.29790697  -11.73330951
Spherical all
End of Basis
Basis set
H.STO-3G.Hehre.3s.1s.

 H42     -17.81255845    3.51111114  -13.47752672
Spherical all
End of Basis
Basis set
C.STO-3G.Hehre.6s3p.2s1p.

 C43     -15.25008983    6.33058252  -11.98275336
Spherical all
End of Basis
Basis set
H.STO-3G.Hehre.3s.1s.

 H44     -13.27343630    6.38727430  -11.43284305
Spherical all
End of Basis
Basis set
H.STO-3G.Hehre.3s.1s.

 H45     -16.34424125    6.53656266  -10.25932313
Spherical all
End of Basis
Basis set
C.STO-3G.Hehre.6s3p.2s1p.

 C46     -15.83779465    8.50376756  -13.78933153
Spherical all
End of Basis
Basis set
H.STO-3G.Hehre.3s.1s.

 H47     -14.97041036   10.22530806  -13.06745615
Spherical all
End of Basis
Basis set
H.STO-3G.Hehre.3s.1s.

 H48     -17.85224270    8.90249977  -13.89137674
Spherical all
End of Basis
Basis set
C.STO-3G.Hehre.6s3p.2s1p.

 C49     -14.85513707    8.05023329  -16.46140427
Spherical all
End of Basis
Basis set
C.STO-3G.Hehre.6s3p.2s1p.

 C50     -14.52443499   10.35002998  -18.15459888
Spherical all
End of Basis
Basis set
H.STO-3G.Hehre.3s.1s.

 H51     -16.35180016   11.10969989  -18.70828863
Spherical all
End of Basis
Basis set
H.STO-3G.Hehre.3s.1s.

 H52     -13.44918083    9.97208476  -19.84779349
Spherical all
End of Basis
Basis set
H.STO-3G.Hehre.3s.1s.

 H53     -13.56445412   11.83346499  -17.10769061
Spherical all
End of Basis
Basis set
H.STO-3G.Hehre.3s.1s.

 H54       2.69285973   -5.14005506  -32.51462770
Spherical all
End of Basis
XField
2536
   25.25429993  -15.74708780  -39.17780201  0.18121425   0.0   0.0   0.0
   24.80832456  -13.89704592  -39.32142120  0.19341521   0.0   0.0   0.0
   26.16892737  -16.28188029  -40.76517196  0.19341521   0.0   0.0   0.0
   26.04798490  -16.05700288  -37.46948960  0.19341521   0.0   0.0   0.0
   22.83356076  -17.24186116  -39.16457393  0.00340027   0.0   0.0   0.0
   22.81466350  -18.48719068  -40.80485621  0.10870855   0.0   0.0   0.0
   22.39892375  -18.88025371  -36.72115805  0.45143550   0.0   0.0   0.0
   24.12424371  -19.93094144  -36.32242584 -0.03230254   0.0   0.0   0.0
   21.74885797  -17.26831733  -34.50450931 -0.25542008   0.0   0.0   0.0
   20.02164829  -16.21762960  -34.90135179  0.06270493   0.0   0.0   0.0
   21.46161960  -18.45884478  -32.84910922  0.06270493   0.0   0.0   0.0
   23.28709503  -15.94739877  -34.13979217  0.06270493   0.0   0.0   0.0
   20.37124762  -20.70761887  -37.14067725 -0.67645319   0.0   0.0   0.0
   20.12558323  -21.69405591  -35.63834498  0.40703201   0.0   0.0   0.0
   20.51486681  -15.61669669  -39.63511574  0.61634846   0.0   0.0   0.0
   20.21062090  -13.54933631  -38.58631774 -0.57224500   0.0   0.0   0.0
   18.92938659  -16.60124400  -41.27728774 -0.34792736   0.0   0.0   0.0
   19.51709141  -18.13003244  -42.25805560  0.27472160   0.0   0.0   0.0
   16.37636660  -15.60913779  -41.78184461 -0.26372074   0.0   0.0   0.0
   16.31778509  -13.59657947  -41.34909733  0.15601227   0.0   0.0   0.0
   15.66771930  -15.97385493  -44.52950640 -0.00070006   0.0   0.0   0.0
   16.21951933  -17.88814750  -45.04918108  0.03270257   0.0   0.0   0.0
   13.61925618  -15.79244122  -44.65611805  0.03270257   0.0   0.0   0.0
   16.92060772  -14.08034935  -46.33986403  0.03900307   0.0   0.0   0.0
   16.31400563  -12.20763076  -45.72948249  0.02850224   0.0   0.0   0.0
   18.95206330  -14.26932197  -46.05829483  0.02850224   0.0   0.0   0.0
   16.30266728  -14.42616923  -49.12721006  0.04860382   0.0   0.0   0.0
   17.12658787  -16.16849672  -49.85475462  0.06870540   0.0   0.0   0.0
   14.26554251  -14.44884595  -49.43523542  0.06870540   0.0   0.0   0.0
   17.41004679  -12.23597666  -50.54639438 -0.52954164   0.0   0.0   0.0
   17.97885435  -10.78466699  -49.44279432  0.34562718   0.0   0.0   0.0
   17.66515981  -12.01865815  -53.04839177  0.80766351   0.0   0.0   0.0
   16.94706389  -13.92728154  -54.57906993 -0.86276784   0.0   0.0   0.0
   16.21573987  -15.52221039  -53.82695893  0.44783521   0.0   0.0   0.0
   17.14359540  -13.75342673  -56.46879605  0.44783521   0.0   0.0   0.0
   18.68561192   -9.90783407  -54.06128497 -0.86276784   0.0   0.0   0.0
   19.25819894   -8.48864975  -52.91989039  0.44783521   0.0   0.0   0.0
   18.87080508   -9.75854571  -55.95479055  0.44783521   0.0   0.0   0.0
   14.46963294  -17.02454266  -40.08865001  0.73415773   0.0   0.0   0.0
   12.18873350  -16.45951454  -40.20203357 -0.58944635   0.0   0.0   0.0
   15.25197955  -18.84623864  -38.57119993 -0.51634060   0.0   0.0   0.0
   17.09446252  -19.33189825  -38.44836773  0.29362309   0.0   0.0   0.0
   13.40193768  -20.36746817  -37.19358958  0.03810300   0.0   0.0   0.0
   11.72386088  -20.60557366  -38.36333005  0.08800692   0.0   0.0   0.0
   14.43372814  -22.97529022  -36.51895736 -0.03030238   0.0   0.0   0.0
   15.44662134  -23.65748135  -38.17813689 -0.01220096   0.0   0.0   0.0
   15.74897752  -22.77497925  -34.94670522 -0.01220096   0.0   0.0   0.0
   12.39660338  -24.83667046  -35.82164842  0.79946286   0.0   0.0   0.0
   10.20452107  -24.30754714  -36.01440048 -0.80146302   0.0   0.0   0.0
   13.08068423  -26.85489796  -35.02418399 -0.80146302   0.0   0.0   0.0
   12.36069858  -19.09568249  -34.83710111  0.53664220   0.0   0.0   0.0
   13.60980755  -18.88592289  -33.04942019 -0.58194576   0.0   0.0   0.0
    9.99665120  -18.31522560  -34.95804358 -0.41573269   0.0   0.0   0.0
    9.04989841  -18.52309547  -36.60210531  0.27192138   0.0   0.0   0.0
    8.77588812  -16.99997622  -32.93036745 -0.00310024   0.0   0.0   0.0
   10.13271148  -16.54644195  -31.44882217  0.08500668   0.0   0.0   0.0
    7.64961135  -14.54144253  -33.93381202 -0.00360028   0.0   0.0   0.0
    6.21152977  -15.02143296  -35.32842990  0.01710134   0.0   0.0   0.0
    6.77088870  -13.55122604  -32.35589070  0.01710134   0.0   0.0   0.0
    9.59791899  -12.87092463  -35.12622920 -0.06450507   0.0   0.0   0.0
   10.97930878  -12.45329516  -33.65602228  0.03520277   0.0   0.0   0.0
   10.51065670  -13.92161236  -36.64556901  0.03520277   0.0   0.0   0.0
    8.62093058  -10.41617040  -36.17880665  0.69515466   0.0   0.0   0.0
    6.50632705   -9.90972380  -36.05597446 -0.60864786   0.0   0.0   0.0
   10.24609505   -8.99698608  -37.23327383 -0.94077397   0.0   0.0   0.0
    9.70563338   -7.32457846  -37.97593620  0.42513343   0.0   0.0   0.0
   12.07157048   -9.54878611  -37.32398069  0.42513343   0.0   0.0   0.0
    6.81246268  -18.57033863  -31.55464683  0.59734697   0.0   0.0   0.0
    5.58603042  -17.78988174  -29.90869537 -0.56794466   0.0   0.0   0.0
    6.66128459  -20.90981957  -32.26329412 -0.41573269   0.0   0.0   0.0
    7.80078944  -21.57689289  -33.64090447  0.27192138   0.0   0.0   0.0
    4.76588929  -22.60301418  -31.20315777  0.01430112   0.0   0.0   0.0
    2.92718577  -21.67515865  -31.19559886  0.10480824   0.0   0.0   0.0
    4.57313722  -25.02186362  -32.77729963 -0.20411605   0.0   0.0   0.0
    6.45152499  -25.52642049  -33.45193186  0.07970627   0.0   0.0   0.0
    3.84559266  -26.53175479  -31.58110299  0.07970627   0.0   0.0   0.0
    2.83647891  -24.72706634  -35.03741208  0.71305607   0.0   0.0   0.0
    3.70008375  -24.49651975  -37.18414095 -0.59314664   0.0   0.0   0.0
    0.37227605  -24.73651497  -34.56309082 -0.91917227   0.0   0.0   0.0
   -0.87116374  -24.54754236  -35.99928267  0.41963300   0.0   0.0   0.0
   -0.24755412  -24.93304649  -32.76785100  0.41963300   0.0   0.0   0.0
    5.30068178  -23.25685942  -28.44793708  0.59734697   0.0   0.0   0.0
    7.42284422  -23.92960192  -27.77141513 -0.56794466   0.0   0.0   0.0
    3.35993305  -23.05465872  -26.86623631 -0.41573269   0.0   0.0   0.0
    1.65728981  -22.48774088  -27.51630210  0.27192138   0.0   0.0   0.0
    3.60559745  -23.62724574  -24.20172248 -0.02520198   0.0   0.0   0.0
    3.01978235  -25.58311227  -23.92393274  0.06980549   0.0   0.0   0.0
    5.59358933  -23.42882449  -23.69905533  0.06980549   0.0   0.0   0.0
    2.05224257  -21.94916894  -22.51608677  0.59734697   0.0   0.0   0.0
    0.44219591  -20.49974900  -23.38914024 -0.56794466   0.0   0.0   0.0
    2.42073917  -22.37624704  -20.09723733 -0.41573269   0.0   0.0   0.0
    3.52433922  -23.83889506  -19.56244484  0.27192138   0.0   0.0   0.0
    1.11304869  -20.92115793  -18.12247353 -0.03890306   0.0   0.0   0.0
   -0.36282742  -19.74007910  -18.94261467  0.10070792   0.0   0.0   0.0
   -0.11716302  -22.72395665  -16.13826110  0.36542873   0.0   0.0   0.0
    1.31146993  -24.04298548  -15.45606997  0.00430034   0.0   0.0   0.0
   -1.19619664  -21.18194013  -13.86492058 -0.24381917   0.0   0.0   0.0
   -2.62482959  -19.86291130  -14.54522198  0.06420505   0.0   0.0   0.0
   -2.04657339  -22.47073335  -12.50053831  0.06420505   0.0   0.0   0.0
    0.32881235  -20.13314213  -12.95974176  0.06420505   0.0   0.0   0.0
   -2.10326518  -24.16014850  -17.28721459 -0.67615317   0.0   0.0   0.0
   -2.84592754  -25.26185883  -16.05133370  0.41023226   0.0   0.0   0.0
    3.00844399  -19.07678523  -16.99997622  0.59734697   0.0   0.0   0.0
    5.05123793  -19.75519691  -16.11936384 -0.56794466   0.0   0.0   0.0
    2.35081930  -16.66738442  -16.94328443 -0.41573269   0.0   0.0   0.0
    0.56313839  -16.13259193  -17.34201665  0.27192138   0.0   0.0   0.0
    4.11015432  -14.77198912  -16.16282754 -0.02750216   0.0   0.0   0.0
    5.89783523  -15.61480697  -15.58457135  0.11230883   0.0   0.0   0.0
    4.59581393  -13.02966163  -18.41727081 -0.00500039   0.0   0.0   0.0
    2.90828851  -12.03755541  -19.05977769  0.03390267   0.0   0.0   0.0
    6.04145442  -11.65772046  -17.89570640  0.03390267   0.0   0.0   0.0
    5.63516330  -14.50742746  -20.73407504 -0.14151113   0.0   0.0   0.0
    4.22731734  -15.53354874  -22.64080870 -0.16381288   0.0   0.0   0.0
    2.18074395  -15.34457613  -22.51419705  0.20621622   0.0   0.0   0.0
    5.82602564  -16.65604606  -24.41904098 -0.34182688   0.0   0.0   0.0
    5.25721808  -17.58957077  -25.98373421  0.34122683   0.0   0.0   0.0
    8.29211823  -16.29510837  -23.69149642  0.13801085   0.0   0.0   0.0
   10.58813548  -17.03210156  -24.89525197 -0.26012045   0.0   0.0   0.0
   10.50309780  -18.03932559  -26.69049178  0.15721236   0.0   0.0   0.0
   12.82368148  -16.40093304  -23.67070944 -0.11340892   0.0   0.0   0.0
   14.60758294  -16.93950498  -24.54943208  0.14171114   0.0   0.0   0.0
   12.86903491  -15.10269119  -21.35579493 -0.19721551   0.0   0.0   0.0
   14.63592883  -14.65293637  -20.39770379  0.14471138   0.0   0.0   0.0
   10.56167931  -14.32979320  -20.18794419 -0.23871877   0.0   0.0   0.0
   10.67506288  -13.19973698  -18.47018314  0.17001337   0.0   0.0   0.0
    8.26566207  -14.97041036  -21.34634630  0.12430977   0.0   0.0   0.0
    3.11615838  -13.07123560  -14.10869525  0.59734697   0.0   0.0   0.0
    1.04501855  -12.01676843  -14.44695622 -0.56794466   0.0   0.0   0.0
    4.69974887  -12.60258352  -12.22085885 -0.51634060   0.0   0.0   0.0
    6.44774554  -13.35469452  -12.37203694  0.29362309   0.0   0.0   0.0
    4.09692624  -11.06245673   -9.92862106  0.03970312   0.0   0.0   0.0
    2.06736038  -10.74687247   -9.77555324  0.11050869   0.0   0.0   0.0
    4.97753861  -12.48731023   -7.60992710  0.05600440   0.0   0.0   0.0
    6.60648253  -13.61736645   -8.16739631 -0.01730136   0.0   0.0   0.0
    5.55957426  -11.08702317   -6.21530922 -0.01730136   0.0   0.0   0.0
    3.00655426  -14.16916648   -6.48931951  0.01360107   0.0   0.0   0.0
    3.80590841  -14.93261584   -4.75077148 -0.04250334   0.0   0.0   0.0
    1.36816171  -13.00509519   -6.03767497 -0.04250334   0.0   0.0   0.0
    2.20720011  -16.31211591   -8.18629357  0.80546333   0.0   0.0   0.0
    3.71331183  -17.06800636   -9.84358338 -0.81886439   0.0   0.0   0.0
    0.03212534  -17.23052280   -7.87448876 -0.81886439   0.0   0.0   0.0
    5.38382973   -8.53589290   -9.97208476  0.53664220   0.0   0.0   0.0
    7.65150108   -8.45463468  -10.04956353 -0.58194576   0.0   0.0   0.0
    3.94007897   -6.51199623   -9.65272104 -0.41573269   0.0   0.0   0.0
    2.05791175   -6.73309418   -9.42973336  0.27192138   0.0   0.0   0.0
    4.94919272   -3.97409404   -9.70563338 -0.02370186   0.0   0.0   0.0
    6.02255716   -3.67362759  -11.43851223  0.08800692   0.0   0.0   0.0
    2.77600768   -2.05035285   -9.61492652  0.03420269   0.0   0.0   0.0
    1.85004188   -2.09759600  -11.45363004  0.02410190   0.0   0.0   0.0
    1.45886857   -2.69285973   -8.16739631  0.02410190   0.0   0.0   0.0
    3.56402347    0.50833633   -9.05745732  0.00180014   0.0   0.0   0.0
    4.28022967    0.58392537   -7.12804694  0.04400346   0.0   0.0   0.0
    5.06068656    1.04879800  -10.36514779  0.04400346   0.0   0.0   0.0
    0.94486306    2.69663918   -9.37304158 -0.27372152   0.0   0.0   0.0
    0.33826098    2.20153094  -12.52888421 -0.05360421   0.0   0.0   0.0
   -0.14172946    0.22109796  -12.83501984  0.06840538   0.0   0.0   0.0
   -1.23777061    3.38827894  -13.12036848  0.06840538   0.0   0.0   0.0
    2.00877887    2.68152137  -13.63437399  0.06840538   0.0   0.0   0.0
    6.75955035   -3.53756731   -7.52866888  0.59734697   0.0   0.0   0.0
    6.12649210   -4.18952282   -5.50666193 -0.56794466   0.0   0.0   0.0
    8.91005868   -2.34326039   -8.02188740 -0.51634060   0.0   0.0   0.0
    9.17084088   -1.77067338   -9.82279640  0.29362309   0.0   0.0   0.0
   10.77143891   -1.63839255   -6.16050717  0.03970312   0.0   0.0   0.0
   10.18751354   -2.33570149   -4.31235502  0.11050869   0.0   0.0   0.0
   13.34713562   -2.74388233   -6.78600651  0.05600440   0.0   0.0   0.0
   13.76665482   -2.00877887   -8.66439428 -0.01730136   0.0   0.0   0.0
   14.61325212   -1.87649804   -5.41217562 -0.01730136   0.0   0.0   0.0
   13.69673495   -5.40272699   -6.76899898  0.01360107   0.0   0.0   0.0
   12.75754107   -6.23609621   -5.13627561 -0.04250334   0.0   0.0   0.0
   12.83879929   -6.12460237   -8.49620866 -0.04250334   0.0   0.0   0.0
   16.53321386   -6.10570511   -6.72364555  0.80546333   0.0   0.0   0.0
   18.15270915   -4.72998449   -7.74598738 -0.81886439   0.0   0.0   0.0
   17.10391115   -8.02755658   -5.57091262 -0.81886439   0.0   0.0   0.0
   11.30812113    1.18485828   -6.11515374  0.53664220   0.0   0.0   0.0
   12.44195680    2.15617751   -4.41628995 -0.58194576   0.0   0.0   0.0
   10.67884233    2.50010766   -8.07668946 -0.41573269   0.0   0.0   0.0
    9.64705187    1.80468845   -9.52421967  0.27192138   0.0   0.0   0.0
   11.42717388    5.09281191   -8.16739631 -0.02490196   0.0   0.0   0.0
   11.72197115    5.80901811   -6.25877292  0.08430663   0.0   0.0   0.0
   13.88948702    5.35737356   -9.64138269  0.21171665   0.0   0.0   0.0
   15.25197955    4.03645500   -8.84202854  0.03520277   0.0   0.0   0.0
   13.51343152    4.85092696  -11.60291840  0.03520277   0.0   0.0   0.0
   14.87214460    7.80456889   -9.53933748 -0.65465148   0.0   0.0   0.0
   16.41605084    7.87637849  -10.48986972  0.42753362   0.0   0.0   0.0
    9.34280596    6.40428184   -9.52988885  0.59734697   0.0   0.0   0.0
    8.50187783    5.41217562  -11.39882798 -0.56794466   0.0   0.0   0.0
    8.40361208    8.50376756   -8.47731139 -0.41573269   0.0   0.0   0.0
    8.65683538    9.05367786   -6.66695377  0.27192138   0.0   0.0   0.0
    6.76332980   10.02310736  -10.08735805  0.01430112   0.0   0.0   0.0
    7.11103941    9.56579364  -12.06590131  0.10480824   0.0   0.0   0.0
    3.98543240    9.49209432   -9.49020460 -0.20411605   0.0   0.0   0.0
    3.77000362    7.48898463   -9.06312649  0.07970627   0.0   0.0   0.0
    3.43741182   10.60703274   -7.84614287  0.07970627   0.0   0.0   0.0
    2.24499464   10.15538819  -11.66716909  0.71305607   0.0   0.0   0.0
    3.05946660   11.23064236  -13.56256440 -0.59314664   0.0   0.0   0.0
   -0.16629590    9.51477104  -11.40638689 -0.91917227   0.0   0.0   0.0
   -1.40973569    9.91161352  -12.79911504  0.41963300   0.0   0.0   0.0
   -0.74644182    8.63415866   -9.81523749  0.41963300   0.0   0.0   0.0
    7.30946065   12.84257874   -9.84169366  0.59734697   0.0   0.0   0.0
    6.71986610   14.00665004   -7.91606274 -0.56794466   0.0   0.0   0.0
    8.43762715   13.92728154  -11.80511910 -0.51634060   0.0   0.0   0.0
    8.94974293   12.87281436  -13.31123082  0.29362309   0.0   0.0   0.0
    9.06879567   16.60880291  -11.81267800  0.03970312   0.0   0.0   0.0
    8.94218402   17.32122966   -9.88326763  0.11050869   0.0   0.0   0.0
   11.76543485   17.01320430  -12.77265888  0.05600440   0.0   0.0   0.0
   13.08446369   15.98141384  -11.57268279 -0.01730136   0.0   0.0   0.0
   11.91661294   16.32534399  -14.70773843 -0.01730136   0.0   0.0   0.0
   12.39282392   19.79488115  -12.70084928  0.01360107   0.0   0.0   0.0
   11.07568482   20.82856134  -13.90082537 -0.04250334   0.0   0.0   0.0
   12.24353556   20.48463119  -10.76576973 -0.04250334   0.0   0.0   0.0
   15.08568365   20.19928255  -13.65894043  0.80546333   0.0   0.0   0.0
   15.36536312   20.56777914  -15.99464192 -0.81886439   0.0   0.0   0.0
   16.83557004   20.13503186  -12.04700404 -0.81886439   0.0   0.0   0.0
    7.20930517   18.11491463  -13.41705548  0.53664220   0.0   0.0   0.0
    6.58758527   17.37225226  -15.53354874 -0.58194576   0.0   0.0   0.0
    6.32869279   20.23518734  -12.39849310 -0.41573269   0.0   0.0   0.0
    6.82191131   20.71139833  -10.61648137  0.27192138   0.0   0.0   0.0
    4.54290160   21.85279290  -13.73641920  0.01430112   0.0   0.0   0.0
    3.86260020   23.33244846  -12.47597187  0.10480824   0.0   0.0   0.0
    5.81279756   23.09434297  -16.01731863 -0.20411605   0.0   0.0   0.0
    7.71008259   23.68960670  -15.47685696  0.07970627   0.0   0.0   0.0
    5.93562976   21.71295317  -17.54043789  0.07970627   0.0   0.0   0.0
    4.37282625   25.38091158  -16.96974060  0.71305607   0.0   0.0   0.0
    3.09348167   26.67537397  -15.52221039 -0.59314664   0.0   0.0   0.0
    4.57502695   25.88924791  -19.41882566 -0.91917227   0.0   0.0   0.0
    3.65473032   27.39158018  -20.15581884  0.41963300   0.0   0.0   0.0
    5.64839139   24.77241977  -20.53376407  0.41963300   0.0   0.0   0.0
    2.18830285   20.41849078  -14.57356787  0.59734697   0.0   0.0   0.0
    1.44564049   20.52998462  -16.77698853 -0.56794466   0.0   0.0   0.0
    1.02045211   19.07300578  -12.80478422 -0.41573269   0.0   0.0   0.0
    1.74988639   18.97851947  -11.04355947  0.27192138   0.0   0.0   0.0
   -1.25477815   17.61980639  -13.35658425 -0.00240019   0.0   0.0   0.0
   -1.13005622   16.82234196  -15.25197955  0.09780769   0.0   0.0   0.0
   -1.56091378   15.45606997  -11.46307867 -0.03430270   0.0   0.0   0.0
    0.17952398   14.35813909  -11.35536428  0.02950232   0.0   0.0   0.0
   -2.01444805   16.20629124   -9.59980871  0.02950232   0.0   0.0   0.0
   -3.63205361   13.63248426  -12.13015199  0.01180093   0.0   0.0   0.0
   -3.93440979   12.80289449  -14.59246513 -0.12560988   0.0   0.0   0.0
   -2.64939603   13.48697535  -16.04944398  0.13301046   0.0   0.0   0.0
   -5.83925372   11.12481770  -15.21229530 -0.17041340   0.0   0.0   0.0
   -6.05657223   10.48609027  -17.15871321  0.14301125   0.0   0.0   0.0
   -7.46441819   10.25932313  -13.36603288 -0.10720843   0.0   0.0   0.0
   -8.96864019    8.93651484  -13.84602331  0.12971020   0.0   0.0   0.0
   -7.18095927   11.07379509  -10.90371974 -0.17041340   0.0   0.0   0.0
   -8.46030386   10.39538341   -9.43918199  0.14301125   0.0   0.0   0.0
   -5.27422561   12.74998216  -10.29522793 -0.12560988   0.0   0.0   0.0
   -5.04934820   13.39248904   -8.35069974  0.13301046   0.0   0.0   0.0
   -3.59614882   19.29977291  -13.32823836  0.59734697   0.0   0.0   0.0
   -5.41595507   18.83112083  -14.69828980 -0.56794466   0.0   0.0   0.0
   -3.53567758   21.25752918  -11.75598622 -0.51634060   0.0   0.0   0.0
   -2.02956586   21.51453193  -10.61270192  0.29362309   0.0   0.0   0.0
   -5.64839139   23.01308474  -11.54811635  0.03970312   0.0   0.0   0.0
   -7.42662367   21.97373538  -11.59346977  0.11050869   0.0   0.0   0.0
   -5.50099275   24.48518140   -9.06501622  0.05600440   0.0   0.0   0.0
   -6.55357020   23.40992723   -7.65905998 -0.01730136   0.0   0.0   0.0
   -3.51489059   24.56454989   -8.52266482 -0.01730136   0.0   0.0   0.0
   -6.55734965   27.15158496   -9.21808404  0.01360107   0.0   0.0   0.0
   -5.44052151   28.34967132   -7.96897507 -0.04250334   0.0   0.0   0.0
   -6.34947978   27.80543020  -11.16072249 -0.04250334   0.0   0.0   0.0
   -9.31634979   27.28764524   -8.45652441  0.80546333   0.0   0.0   0.0
  -10.50498753   25.26941774   -8.16550658 -0.81886439   0.0   0.0   0.0
  -10.29522793   29.41358713   -8.14849905 -0.81886439   0.0   0.0   0.0
   -5.71075235   24.83667046  -13.77799317  0.53664220   0.0   0.0   0.0
   -7.71764149   25.37524240  -14.82301172 -0.58194576   0.0   0.0   0.0
   -3.49788306   25.78153352  -14.49986855 -0.41573269   0.0   0.0   0.0
   -1.90106448   25.28264582  -13.57957193  0.27192138   0.0   0.0   0.0
   -3.28812346   27.59378087  -16.66927414 -0.02520198   0.0   0.0   0.0
   -4.34637009   29.30587274  -16.23274741  0.06980549   0.0   0.0   0.0
   -1.30769048   28.06999185  -16.97163032  0.06980549   0.0   0.0   0.0
   -4.37093653   26.39947396  -19.12591811  0.59734697   0.0   0.0   0.0
   -5.68240646   27.58811169  -20.56210996 -0.56794466   0.0   0.0   0.0
   -3.82669540   23.97684507  -19.56055512 -0.41573269   0.0   0.0   0.0
   -2.66073438   22.96773132  -18.43616807  0.27192138   0.0   0.0   0.0
   -4.78667627   22.79009706  -21.83578537 -0.02750216   0.0   0.0   0.0
   -4.41817968   23.95416835  -23.49496491  0.11230883   0.0   0.0   0.0
   -3.39772757   20.22951816  -22.16081826 -0.00500039   0.0   0.0   0.0
   -1.43430213   20.56588941  -22.68805185  0.03390267   0.0   0.0   0.0
   -3.46197826   19.11457975  -20.42982913  0.03390267   0.0   0.0   0.0
   -4.54101188   18.59301534  -24.23951700 -0.14151113   0.0   0.0   0.0
   -4.13472076   18.79332631  -26.82277261 -0.16381288   0.0   0.0   0.0
   -2.84403782   20.26731269  -27.45961032  0.20621622   0.0   0.0   0.0
   -5.53311809   16.98107896  -28.08510966 -0.34182688   0.0   0.0   0.0
   -5.47075713   16.64659743  -29.96349743  0.34122683   0.0   0.0   0.0
   -6.90694899   15.60913779  -26.35034108  0.13801085   0.0   0.0   0.0
   -8.58880524   13.47752672  -26.71316850 -0.26012045   0.0   0.0   0.0
   -8.87037443   12.77643833  -28.62935079  0.15721236   0.0   0.0   0.0
   -9.74531762   12.45329516  -24.59100606 -0.11340892   0.0   0.0   0.0
  -11.12103824   10.93206563  -24.77619922  0.14171114   0.0   0.0   0.0
   -9.15383335   13.37170206  -22.15703881 -0.19721551   0.0   0.0   0.0
   -9.99476147   12.49675886  -20.49219009  0.14471138   0.0   0.0   0.0
   -7.45119011   15.45795970  -21.77909359 -0.23871877   0.0   0.0   0.0
   -7.15828256   16.14770973  -19.86102157  0.17001337   0.0   0.0   0.0
   -6.29089827   16.55589058  -23.90692520  0.12430977   0.0   0.0   0.0
   -7.70819286   22.54065321  -21.68649701  0.59734697   0.0   0.0   0.0
   -9.04044978   23.05276899  -23.56488477 -0.56794466   0.0   0.0   0.0
   -8.70029908   21.66193057  -19.54732703 -0.41573269   0.0   0.0   0.0
   -7.58914012   21.21784493  -18.06011257  0.27192138   0.0   0.0   0.0
  -11.41772524   21.41626617  -19.26008866 -0.02370186   0.0   0.0   0.0
  -12.17928487   20.10857569  -20.65848599  0.08800692   0.0   0.0   0.0
  -11.98842253   20.38825516  -16.63147962  0.03420269   0.0   0.0   0.0
  -10.81679234   21.42004562  -15.28599462  0.02410190   0.0   0.0   0.0
  -13.97641442   20.75486203  -16.23274741  0.02410190   0.0   0.0   0.0
  -11.45929922   17.52720981  -16.38770495  0.00180014   0.0   0.0   0.0
  -12.21896912   16.58423647  -18.05444339  0.04400346   0.0   0.0   0.0
   -9.42028473   17.25130979  -16.31400563  0.04400346   0.0   0.0   0.0
  -12.89738080   16.15715837  -13.55311577 -0.27372152   0.0   0.0   0.0
  -10.79789508   17.48752556  -11.23820126 -0.05360421   0.0   0.0   0.0
  -10.88104303   19.54354758  -11.33646702  0.06840538   0.0   0.0   0.0
  -11.36670264   16.86769539   -9.35792377  0.06840538   0.0   0.0   0.0
   -8.87226415   16.86013648  -11.61425676  0.06840538   0.0   0.0   0.0
  -12.66494449   23.97684507  -19.46417908  0.59734697   0.0   0.0   0.0
  -14.68128226   24.16581768  -20.60179421 -0.56794466   0.0   0.0   0.0
  -11.41583552   25.95538832  -18.50608794 -0.34792736   0.0   0.0   0.0
   -9.72831009   25.78531297  -17.62925502  0.27472160   0.0   0.0   0.0
  -12.59880407   28.44982681  -18.59490507 -0.24001887   0.0   0.0   0.0
  -14.56411924   28.32699461  -17.99208243  0.14261121   0.0   0.0   0.0
  -11.18717866   30.26774334  -16.80533443 -0.00940074   0.0   0.0   0.0
  -11.16828140   29.38524124  -14.94395419  0.03620285   0.0   0.0   0.0
   -9.25776828   30.42648033  -17.50831254  0.03620285   0.0   0.0   0.0
  -12.25676364   32.67147497  -16.62581044  0.01870147   0.0   0.0   0.0
  -12.33802187   33.54263871  -18.49097013  0.01030081   0.0   0.0   0.0
  -14.15971785   32.53352496  -15.84913301  0.01030081   0.0   0.0   0.0
  -10.59002520   34.31742642  -14.84757816 -0.04790377   0.0   0.0   0.0
   -8.63415866   33.71271406  -15.08001447  0.06210488   0.0   0.0   0.0
  -10.77710809   36.27896214  -15.44851107  0.06210488   0.0   0.0   0.0
  -11.31379031   34.09632847  -12.18117460 -0.01430112   0.0   0.0   0.0
  -13.08257396   35.09599359  -11.83724444  0.11350893   0.0   0.0   0.0
  -11.53488826   32.11400576  -11.66527937  0.11350893   0.0   0.0   0.0
   -9.21241486   35.27929702  -10.58246630 -0.38543031   0.0   0.0   0.0
   -9.00832444   37.11611081  -11.05867728  0.34002674   0.0   0.0   0.0
   -9.66972858   35.14890592   -8.73431415  0.34002674   0.0   0.0   0.0
   -7.57402231   34.35333122  -10.89994029  0.34002674   0.0   0.0   0.0
  -12.59313489   29.33232891  -21.32555932  0.73415773   0.0   0.0   0.0
  -14.42805896   30.49262075  -22.24774566 -0.58944635   0.0   0.0   0.0
  -10.61081219   28.67659394  -22.72206692 -0.41573269   0.0   0.0   0.0
   -9.01966279   28.00574117  -21.90948469  0.27192138   0.0   0.0   0.0
  -10.56734849   29.22650424  -25.42815473  0.03370265   0.0   0.0   0.0
  -10.85080741   31.26740846  -25.42437528  0.08230647   0.0   0.0   0.0
   -7.91417301   28.63313024  -26.67726370 -0.18251435   0.0   0.0   0.0
   -7.60992710   26.59600548  -26.70938904  0.06030474   0.0   0.0   0.0
   -7.88204767   29.36256452  -28.60289462  0.06030474   0.0   0.0   0.0
   -6.42128937   29.53263987  -25.57933282  0.06030474   0.0   0.0   0.0
  -12.66305476   28.05865350  -26.99473769  0.59734697   0.0   0.0   0.0
  -13.31878973   29.03753163  -29.02619327 -0.56794466   0.0   0.0   0.0
  -13.64193289   25.90625544  -26.10467668 -0.41573269   0.0   0.0   0.0
  -12.78966641   25.06154786  -24.62124168  0.27192138   0.0   0.0   0.0
  -15.79433095   24.70061017  -27.20071784 -0.05180407   0.0   0.0   0.0
  -15.90015561   25.08422458  -29.22083506  0.09220725   0.0   0.0   0.0
  -15.52976929   21.82633674  -26.81143426 -0.11020867   0.0   0.0   0.0
  -15.15938297   21.41059699  -24.82911155  0.04570359   0.0   0.0   0.0
  -17.28721459   20.91737847  -27.38591100  0.04570359   0.0   0.0   0.0
  -13.39059932   20.83989970  -28.40069393  0.35312777   0.0   0.0   0.0
  -11.77299376   22.10790593  -28.26463365 -0.03610284   0.0   0.0   0.0
  -12.65549586   18.26042354  -27.44071305 -0.41213241   0.0   0.0   0.0
  -14.27121169   16.99052759  -27.57677334  0.10000786   0.0   0.0   0.0
  -11.10403071   17.51965090  -28.57643846  0.10000786   0.0   0.0   0.0
  -12.05834240   18.40215300  -25.47539789  0.10000786   0.0   0.0   0.0
  -14.27688087   20.62447092  -31.15213516 -0.41213241   0.0   0.0   0.0
  -14.85135761   22.48018198  -31.83621602  0.10000786   0.0   0.0   0.0
  -12.73486435   19.91015445  -32.31620646  0.10000786   0.0   0.0   0.0
  -15.87558917   19.33000853  -31.25984955  0.10000786   0.0   0.0   0.0
  -18.36624820   25.54531775  -26.15003011  0.59734697   0.0   0.0   0.0
  -20.41282160   24.66848483  -26.99473769 -0.56794466   0.0   0.0   0.0
  -18.26609272   27.14213633  -24.23195810 -0.51634060   0.0   0.0   0.0
  -16.59746455   27.39913908  -23.34378682  0.29362309   0.0   0.0   0.0
  -20.57722777   28.32699461  -23.11324023  0.03810300   0.0   0.0   0.0
  -19.97818459   29.75940701  -21.76019632  0.08800692   0.0   0.0   0.0
  -22.32333471   29.58933166  -25.10123211 -0.03030238   0.0   0.0   0.0
  -23.54220806   28.34022269  -26.19349381 -0.01220096   0.0   0.0   0.0
  -23.47417792   30.72694679  -23.82755670 -0.01220096   0.0   0.0   0.0
  -20.83989970   31.36000504  -26.93048700  0.79946286   0.0   0.0   0.0
  -19.20528660   32.76596127  -26.07822052 -0.80146302   0.0   0.0   0.0
  -21.00619560   31.08221530  -29.23784260 -0.80146302   0.0   0.0   0.0
  -21.94727921   26.46183492  -21.45406069  0.53664220   0.0   0.0   0.0
  -24.25085536   26.68671233  -20.87769422 -0.58194576   0.0   0.0   0.0
  -20.58100722   24.60990332  -20.46384420 -0.41573269   0.0   0.0   0.0
  -18.76120096   24.26030399  -20.91926820  0.27192138   0.0   0.0   0.0
  -21.85090318   22.88458337  -18.69695028 -0.05970469   0.0   0.0   0.0
  -23.56110532   22.12302374  -19.55677566  0.08690683   0.0   0.0   0.0
  -20.01408939   20.68683189  -18.06389202  0.13031025   0.0   0.0   0.0
  -18.20373176   21.47862713  -17.47996665  0.01870147   0.0   0.0   0.0
  -21.09501273   19.01820372  -15.90393506 -0.32042520   0.0   0.0   0.0
  -22.90348063   18.22451875  -16.48786044  0.08820694   0.0   0.0   0.0
  -19.77787362   17.48941528  -15.49008504  0.08820694   0.0   0.0   0.0
  -21.36335384   20.16715720  -14.21640964  0.08820694   0.0   0.0   0.0
  -19.70039485   19.12024893  -20.45817502 -0.04300338   0.0   0.0   0.0
  -21.33689767   17.87680914  -20.59423531  0.02360186   0.0   0.0   0.0
  -19.69850512   20.42793941  -22.04932442  0.02360186   0.0   0.0   0.0
  -17.46484884   17.65760091  -20.50541818 -0.06600519   0.0   0.0   0.0
  -17.46673857   16.34802070  -18.91426878  0.01860146   0.0   0.0   0.0
  -17.37603172   16.59557483  -22.26853265  0.01860146   0.0   0.0   0.0
  -15.82834602   18.89915097  -20.36935790  0.01860146   0.0   0.0   0.0
  -22.67293404   24.34723139  -16.37069742  0.59734697   0.0   0.0   0.0
  -21.24997027   25.90814517  -15.39559874 -0.56794466   0.0   0.0   0.0
  -24.95005402   23.71039368  -15.47307751 -0.51634060   0.0   0.0   0.0
  -25.95727805   22.36112923  -16.37258714  0.29362309   0.0   0.0   0.0
  -26.08955888   24.94249512  -13.22052397  0.03810300   0.0   0.0   0.0
  -26.55821095   26.90214111  -13.64760207  0.08800692   0.0   0.0   0.0
  -28.48951105   23.56488477  -12.50620749 -0.03030238   0.0   0.0   0.0
  -29.81231934   23.62535601  -14.08412881 -0.01220096   0.0   0.0   0.0
  -28.04920487   21.60334906  -12.05645267 -0.01220096   0.0   0.0   0.0
  -29.67814879   24.83478073  -10.20452107  0.79946286   0.0   0.0   0.0
  -31.23717284   26.58655685  -10.61081219 -0.80146302   0.0   0.0   0.0
  -29.01674464   24.03920603   -8.05968192 -0.80146302   0.0   0.0   0.0
  -24.26786289   24.93493621  -10.97363961  0.53664220   0.0   0.0   0.0
  -23.00741557   23.02631283  -10.49553890 -0.58194576   0.0   0.0   0.0
  -24.13936152   27.02497331   -9.60925734 -0.41573269   0.0   0.0   0.0
  -25.20516705   28.50273914  -10.17428545  0.27192138   0.0   0.0   0.0
  -22.42915937   27.38780072   -7.48898463 -0.00240019   0.0   0.0   0.0
  -20.46762366   27.18371030   -8.08424836  0.09780769   0.0   0.0   0.0
  -22.82222241   30.14680087   -6.43262773 -0.03430270   0.0   0.0   0.0
  -22.10979566   31.52630094   -7.78567163  0.02950232   0.0   0.0   0.0
  -24.83667046   30.45860568   -6.13027155  0.02950232   0.0   0.0   0.0
  -21.51831138   30.70238035   -3.92874061  0.01180093   0.0   0.0   0.0
  -19.18449962   31.90424616   -3.84937212 -0.12560988   0.0   0.0   0.0
  -18.27743108   32.44848728   -5.61626604  0.13301046   0.0   0.0   0.0
  -17.99019271   32.42203112   -1.52500898 -0.17041340   0.0   0.0   0.0
  -16.17038645   33.38768117   -1.49855282  0.14301125   0.0   0.0   0.0
  -19.14292564   31.69448656    0.75778018 -0.10720843   0.0   0.0   0.0
  -18.22262902   32.06109343    2.56435835  0.12971020   0.0   0.0   0.0
  -21.48996549   30.49262075    0.69352949 -0.17041340   0.0   0.0   0.0
  -22.40459293   29.91058510    2.44530561  0.14301125   0.0   0.0   0.0
  -22.67293404   30.03341730   -1.63461310 -0.12560988   0.0   0.0   0.0
  -24.52864510   29.13957684   -1.68941516  0.13301046   0.0   0.0   0.0
  -22.84867857   25.29209445   -5.51422083  0.59734697   0.0   0.0   0.0
  -21.00052642   24.33400331   -4.43896667 -0.56794466   0.0   0.0   0.0
  -25.23351294   24.57210880   -5.07580437 -0.41573269   0.0   0.0   0.0
  -26.68860206   25.42437528   -5.96964483  0.27192138   0.0   0.0   0.0
  -25.81932804   22.62002171   -3.13316591  0.03370265   0.0   0.0   0.0
  -24.91225950   23.23229298   -1.38894870  0.08230647   0.0   0.0   0.0
  -28.63879942   22.39325458   -2.66829329 -0.18251435   0.0   0.0   0.0
  -29.57232412   21.76586550   -4.39361324  0.06030474   0.0   0.0   0.0
  -28.98083985   21.02509286   -1.16785074  0.06030474   0.0   0.0   0.0
  -29.39280014   24.22628892   -2.10893436  0.06030474   0.0   0.0   0.0
  -24.71761771   20.05755309   -3.82858513  0.59734697   0.0   0.0   0.0
  -23.90125602   18.57222835   -2.20908984 -0.56794466   0.0   0.0   0.0
  -24.79509648   19.43016401   -6.26066265 -0.41573269   0.0   0.0   0.0
  -25.58122255   20.59045585   -7.55512505  0.27192138   0.0   0.0   0.0
  -23.81621835   17.04155019   -7.09970105 -0.05180407   0.0   0.0   0.0
  -24.44927660   15.51843093   -5.86570989  0.09220725   0.0   0.0   0.0
  -24.79887593   16.53321386   -9.77177379 -0.11020867   0.0   0.0   0.0
  -26.82655206   16.89415155   -9.74153817  0.04570359   0.0   0.0   0.0
  -23.89369712   17.81255845  -11.10781016  0.04570359   0.0   0.0   0.0
  -24.31699577   13.78744180  -10.58435602  0.35312777   0.0   0.0   0.0
  -24.56643962   12.54967119   -8.95730183 -0.03610284   0.0   0.0   0.0
  -26.20861162   13.00509519  -12.71785682 -0.41213241   0.0   0.0   0.0
  -25.95916777   14.24286580  -14.34491101  0.10000786   0.0   0.0   0.0
  -25.84767393   11.05489783  -13.27721575  0.10000786   0.0   0.0   0.0
  -28.13991172   13.17139109  -12.02054788  0.10000786   0.0   0.0   0.0
  -21.58823125   13.40382740  -11.52166018 -0.41213241   0.0   0.0   0.0
  -20.26920241   13.87247948  -10.00987928  0.10000786   0.0   0.0   0.0
  -21.32177986   11.43851223  -12.07912939  0.10000786   0.0   0.0   0.0
  -21.23863191   14.62836993  -13.14115547  0.10000786   0.0   0.0   0.0
  -20.87769422   17.16249266   -7.02033255  0.59734697   0.0   0.0   0.0
  -19.61157772   15.37859120   -6.16428662 -0.56794466   0.0   0.0   0.0
  -19.78165307   19.25252976   -7.82157643 -0.34792736   0.0   0.0   0.0
  -20.78887710   20.71706750   -8.51510592  0.27472160   0.0   0.0   0.0
  -16.96974060   19.49441470   -7.70819286 -0.26372074   0.0   0.0   0.0
  -16.12881247   17.99019271   -8.83635936  0.15601227   0.0   0.0   0.0
  -16.01542891   22.08333949   -8.73242442 -0.00070006   0.0   0.0   0.0
  -16.76187072   23.53275943   -7.47386682  0.03270257   0.0   0.0   0.0
  -13.95940688   22.05310387   -8.60203332  0.03270257   0.0   0.0   0.0
  -16.79021662   22.66537514  -11.41772524  0.03900307   0.0   0.0   0.0
  -16.55967003   20.94761409  -12.53266366  0.02850224   0.0   0.0   0.0
  -18.77631877   23.21150599  -11.40260744  0.02850224   0.0   0.0   0.0
  -15.24442065   24.75163278  -12.56478900  0.04860382   0.0   0.0   0.0
  -13.34902534   24.03164713  -12.93139587  0.06870540   0.0   0.0   0.0
  -16.12125357   25.31099171  -14.34302129  0.06870540   0.0   0.0   0.0
  -15.04599940   26.98906851  -10.92639645 -0.52954164   0.0   0.0   0.0
  -13.84224386   26.90970001   -9.44863062  0.34562718   0.0   0.0   0.0
  -16.32534399   29.12445903  -11.32134921  0.80766351   0.0   0.0   0.0
  -17.93350092   29.41736658  -13.26398767 -0.86276784   0.0   0.0   0.0
  -18.20751121   27.98306445  -14.49230965  0.44783521   0.0   0.0   0.0
  -18.86135645   31.07087694  -13.48697535  0.44783521   0.0   0.0   0.0
  -16.00598028   30.96883173   -9.68295666 -0.86276784   0.0   0.0   0.0
  -14.82679117   30.72694679   -8.20141138  0.44783521   0.0   0.0   0.0
  -16.94139471   32.61667291   -9.91539298  0.44783521   0.0   0.0   0.0
  -16.05322343   19.26197839   -5.02100231  0.73415773   0.0   0.0   0.0
  -14.05956237   18.21695984   -4.55423996 -0.58944635   0.0   0.0   0.0
  -17.47996665   20.34479146   -3.22198304 -0.34792736   0.0   0.0   0.0
  -19.08623386   21.27075726   -3.67929676  0.27472160   0.0   0.0   0.0
  -16.63147962   20.39581406   -0.55557948 -0.24001887   0.0   0.0   0.0
  -14.74364322   21.21217575   -0.44597537  0.14261121   0.0   0.0   0.0
  -18.42482971   21.98885319    1.06769526 -0.00940074   0.0   0.0   0.0
  -18.53254410   23.88046904    0.25889248  0.03620285   0.0   0.0   0.0
  -20.29187913   21.11768944    1.02612129  0.03620285   0.0   0.0   0.0
  -17.49130501   22.16459772    3.84370294  0.01870147   0.0   0.0   0.0
  -17.40059815   20.24085652    4.57313722  0.01030081   0.0   0.0   0.0
  -15.59590971   22.96962104    3.79268033  0.01030081   0.0   0.0   0.0
  -19.16749208   23.76330602    5.55957426 -0.04790377   0.0   0.0   0.0
  -20.27487159   25.12201910    4.47865092  0.06210488   0.0   0.0   0.0
  -20.43171886   22.58978609    6.68774075  0.06210488   0.0   0.0   0.0
  -17.34390637   25.17871088    7.31135038 -0.01430112   0.0   0.0   0.0
  -15.58646108   24.10912590    7.20930517  0.11350893   0.0   0.0   0.0
  -17.08123444   27.01552468    6.41750992  0.11350893   0.0   0.0   0.0
  -18.06011257   25.54153830    9.99665120 -0.38543031   0.0   0.0   0.0
  -18.30199752   23.83889506   10.82624097  0.34002674   0.0   0.0   0.0
  -16.67872278   26.49962944   10.89994029  0.34002674   0.0   0.0   0.0
  -19.68716677   26.53364452   10.09302723  0.34002674   0.0   0.0   0.0
  -16.31400563   17.71996187    0.52534386  0.73415773   0.0   0.0   0.0
  -14.56411924   17.16627212    1.99177134 -0.58944635   0.0   0.0   0.0
  -17.98830298   16.02676726   -0.23621577 -0.41573269   0.0   0.0   0.0
  -19.41315648   16.57478784   -1.38138980  0.27192138   0.0   0.0   0.0
  -17.89381667   13.42650412    0.54802058 -0.05970469   0.0   0.0   0.0
  -17.13036732   13.14493492    2.43963643  0.08690683   0.0   0.0   0.0
  -20.50163873   12.28133008    0.39495276  0.13031025   0.0   0.0   0.0
  -21.14981479   12.33991159   -1.55902405  0.01870147   0.0   0.0   0.0
  -20.44683667    9.45618953    1.33792610 -0.32042520   0.0   0.0   0.0
  -19.80055033    9.39571829    3.29190291  0.08820694   0.0   0.0   0.0
  -22.34034224    8.65494565    1.21698362  0.08820694   0.0   0.0   0.0
  -19.16182290    8.36203810    0.15684727  0.08820694   0.0   0.0   0.0
  -22.42349019   13.95373770    1.84059325 -0.04300338   0.0   0.0   0.0
  -22.82789158   15.55622546    0.61038154  0.02360186   0.0   0.0   0.0
  -24.12424371   12.81234312    2.06169120  0.02360186   0.0   0.0   0.0
  -21.56555453   14.92127748    4.43707694 -0.06600519   0.0   0.0   0.0
  -19.86480102   16.06267206    4.21786871  0.01860146   0.0   0.0   0.0
  -23.05843817   16.06834124    5.27233589  0.01860146   0.0   0.0   0.0
  -21.16115314   13.32067945    5.66917837  0.01860146   0.0   0.0   0.0
  -16.03810562   11.88070815   -1.12627677  0.59734697   0.0   0.0   0.0
  -14.49797883   10.31790464   -0.18141371 -0.56794466   0.0   0.0   0.0
  -16.07401042   12.38904447   -3.59992827 -0.41573269   0.0   0.0   0.0
  -17.22485363   13.69673495   -4.38038516  0.27192138   0.0   0.0   0.0
  -14.47341239   10.83946905   -5.30257151  0.03370265   0.0   0.0   0.0
  -15.10647064    8.89683059   -5.04745848  0.08230647   0.0   0.0   0.0
  -14.90993912   11.59535950   -8.03133603 -0.18251435   0.0   0.0   0.0
  -14.26932197   13.53043905   -8.32046413  0.06030474   0.0   0.0   0.0
  -13.85736167   10.33302245   -9.27099637  0.06030474   0.0   0.0   0.0
  -16.91871799   11.46685812   -8.46786276  0.06030474   0.0   0.0   0.0
  -11.67850745   10.93206563   -4.72809476  0.59734697   0.0   0.0   0.0
  -10.38593478    9.06501622   -5.13816533 -0.56794466   0.0   0.0   0.0
  -10.79600535   13.06367670   -3.81346732 -0.41573269   0.0   0.0   0.0
  -12.04133487   14.48664047   -3.55268511  0.27192138   0.0   0.0   0.0
   -8.08235863   13.53988768   -3.22954195 -0.08750688   0.0   0.0   0.0
   -6.88616200   12.98808765   -4.81313244  0.09690762   0.0   0.0   0.0
   -7.50221271   16.37636660   -2.54357136  0.29852347   0.0   0.0   0.0
   -5.51422083   16.53510359   -2.02767613 -0.02970234   0.0   0.0   0.0
   -8.06157165   18.12625299   -4.77722764 -0.31922510   0.0   0.0   0.0
  -10.04956353   17.96751599   -5.29312287  0.07910622   0.0   0.0   0.0
   -7.64394217   20.07267090   -4.24810433  0.07910622   0.0   0.0   0.0
   -6.89183118   17.58579132   -6.38349485  0.07910622   0.0   0.0   0.0
   -8.99509635   17.22485363   -0.22676713 -0.31922510   0.0   0.0   0.0
   -8.49053948   16.04755425    1.38516925  0.07910622   0.0   0.0   0.0
   -8.55101071   19.19205852    0.19464179  0.07910622   0.0   0.0   0.0
  -11.01143413   17.04343992   -0.60471236  0.07910622   0.0   0.0   0.0
   -7.15639283   11.88070815   -1.04690827  0.59734697   0.0   0.0   0.0
   -4.85281669   11.37993072   -0.80502333 -0.56794466   0.0   0.0   0.0
   -8.94596347   11.00009577    0.50077742 -0.34792736   0.0   0.0   0.0
  -10.76576973   11.50087319    0.22298768  0.27472160   0.0   0.0   0.0
   -8.35636892    9.28989363    2.62105013 -0.26372074   0.0   0.0   0.0
   -6.54223184    9.78122242    3.46386799  0.15601227   0.0   0.0   0.0
  -10.44262656    9.55256556    4.66573380 -0.00070006   0.0   0.0   0.0
  -12.07723966    8.54723126    3.91740226  0.03270257   0.0   0.0   0.0
   -9.72264091    8.55479017    6.31735443  0.03270257   0.0   0.0   0.0
  -11.21552455   12.20196159    5.41406535  0.03900307   0.0   0.0   0.0
   -9.65272104   13.01076437    6.48554006  0.02850224   0.0   0.0   0.0
  -11.48008621   13.27154657    3.67362759  0.02850224   0.0   0.0   0.0
  -13.64193289   12.32290406    7.00332502  0.04860382   0.0   0.0   0.0
  -15.27843572   11.76921430    5.88271743  0.06870540   0.0   0.0   0.0
  -13.49642398   11.09836153    8.65305592  0.06870540   0.0   0.0   0.0
  -13.99153223   14.90238022    7.85181205 -0.52954164   0.0   0.0   0.0
  -12.53833284   16.10046658    7.54000724  0.34562718   0.0   0.0   0.0
  -16.03999535   15.77921314    9.00643471  0.80766351   0.0   0.0   0.0
  -16.10235631   18.19428313    9.65650050 -0.86276784   0.0   0.0   0.0
  -14.60947267   19.31867017    9.26910664  0.44783521   0.0   0.0   0.0
  -17.64248310   18.90104070   10.53711287  0.44783521   0.0   0.0   0.0
  -17.97885435   14.26176306    9.52044022 -0.86276784   0.0   0.0   0.0
  -17.89759613   12.41928009    9.02911142  0.44783521   0.0   0.0   0.0
  -19.52276059   14.95907200   10.39916286  0.44783521   0.0   0.0   0.0
   -8.20897029    6.49876814    1.99744051  0.73415773   0.0   0.0   0.0
   -7.20741544    5.03234067    3.58292073 -0.58944635   0.0   0.0   0.0
   -9.13682581    5.62193522   -0.18897261 -0.41573269   0.0   0.0   0.0
   -9.55445529    6.83324967   -1.60248775  0.27192138   0.0   0.0   0.0
   -9.59791899    2.96687002   -0.58581510 -0.05180407   0.0   0.0   0.0
   -9.98153339    2.03523504    1.20942472  0.09220725   0.0   0.0   0.0
  -11.91661294    2.62293986   -2.33003231 -0.11020867   0.0   0.0   0.0
  -11.37615127    3.36938168   -4.17251528  0.04570359   0.0   0.0   0.0
  -12.38526502    0.62549935   -2.51144602  0.04570359   0.0   0.0   0.0
  -14.23152744    4.07424952   -1.33792610  0.35312777   0.0   0.0   0.0
  -13.87058975    6.09625648   -1.19430691 -0.03610284   0.0   0.0   0.0
  -16.30266728    3.59614882   -3.34292551 -0.41213241   0.0   0.0   0.0
  -16.66549469    1.57414186   -3.48654470  0.10000786   0.0   0.0   0.0
  -18.03365641    4.56557832   -2.78923576  0.10000786   0.0   0.0   0.0
  -15.67149875    4.31046529   -5.16840095  0.10000786   0.0   0.0   0.0
  -14.90049049    3.06891523    1.37194117 -0.41213241   0.0   0.0   0.0
  -13.29800274    3.36749195    2.63049877  0.10000786   0.0   0.0   0.0
  -16.54077277    4.08369816    2.09570627  0.10000786   0.0   0.0   0.0
  -15.32945832    1.05635690    1.27178568  0.10000786   0.0   0.0   0.0
   -7.33213736    1.63461310   -1.78390146  0.59734697   0.0   0.0   0.0
   -5.99232154    2.71931589   -3.44875018 -0.56794466   0.0   0.0   0.0
   -6.87104419   -0.64628633   -0.88628155 -0.41573269   0.0   0.0   0.0
   -7.92551137   -1.30202130    0.56313839  0.27192138   0.0   0.0   0.0
   -5.00777423   -2.32436313   -2.00499942 -0.03890306   0.0   0.0   0.0
   -3.25410839   -1.24532952   -2.01633777  0.10070792   0.0   0.0   0.0
   -4.65061599   -4.69974887   -0.25133357  0.36542873   0.0   0.0   0.0
   -6.41373047   -5.76177495   -0.19275206  0.00430034   0.0   0.0   0.0
   -2.59837342   -6.34759005   -1.23588089 -0.24381917   0.0   0.0   0.0
   -0.83336922   -5.28745370   -1.29446240  0.06420505   0.0   0.0   0.0
   -2.37538574   -7.98031342   -0.00188973  0.06420505   0.0   0.0   0.0
   -3.07836386   -6.98442776   -3.13505564  0.06420505   0.0   0.0   0.0
   -3.75110636   -3.89850499    2.10515490 -0.67615317   0.0   0.0   0.0
   -3.52811867   -5.33658658    3.18796797  0.41023226   0.0   0.0   0.0
   -6.12082292   -3.23899058   -4.49565845  0.59734697   0.0   0.0   0.0
   -8.37337646   -3.96842486   -4.67329271 -0.56794466   0.0   0.0   0.0
   -4.55612969   -3.42229401   -6.42695855 -0.41573269   0.0   0.0   0.0
   -2.68341110   -3.10670975   -6.23609621  0.27192138   0.0   0.0   0.0
   -5.48587494   -4.24621460   -8.84580799 -0.00310024   0.0   0.0   0.0
   -7.51922025   -4.55990914   -8.73620387  0.08500668   0.0   0.0   0.0
   -4.95108245   -2.19964121  -10.93962454 -0.00360028   0.0   0.0   0.0
   -2.94041385   -1.75744530  -10.88860193  0.01710134   0.0   0.0   0.0
   -5.42540370   -3.02734125  -12.76509997  0.01710134   0.0   0.0   0.0
   -6.48931951    0.23621577  -10.55034095 -0.06450507   0.0   0.0   0.0
   -8.45841413   -0.28723837  -10.24231560  0.03520277   0.0   0.0   0.0
   -5.78823112    1.26611650   -8.91005868  0.03520277   0.0   0.0   0.0
   -6.34381060    1.97098435  -12.86336573  0.69515466   0.0   0.0   0.0
   -6.24176539    1.06769526  -15.05733776 -0.60864786   0.0   0.0   0.0
   -6.28522909    4.44274612  -12.37770612 -0.94077397   0.0   0.0   0.0
   -6.18885306    5.68996536  -13.81956715  0.42513343   0.0   0.0   0.0
   -6.33625170    5.05501738  -10.57112794  0.42513343   0.0   0.0   0.0
   -4.14416939   -6.57435719   -9.78878133  0.59734697   0.0   0.0   0.0
   -1.87838777   -6.84269830   -9.29178335 -0.56794466   0.0   0.0   0.0
   -5.56713316   -8.13905042  -11.13615605 -0.41573269   0.0   0.0   0.0
   -7.42284422   -7.74787711  -11.34969510  0.27192138   0.0   0.0   0.0
   -4.53723243  -10.47475191  -12.36825749 -0.03890306   0.0   0.0   0.0
   -2.51522547  -10.47097246  -11.97708418  0.10070792   0.0   0.0   0.0
   -5.68240646  -12.84257874  -11.24009099  0.36542873   0.0   0.0   0.0
   -7.72709012  -12.71785682  -11.45174031  0.00430034   0.0   0.0   0.0
   -4.70919750  -15.31056106  -12.53644311 -0.24381917   0.0   0.0   0.0
   -2.66451384  -15.43717271  -12.32479378  0.06420505   0.0   0.0   0.0
   -5.59358933  -16.94706389  -11.65016156  0.06420505   0.0   0.0   0.0
   -5.19107766  -15.27087681  -14.53955280  0.06420505   0.0   0.0   0.0
   -4.81880162  -12.95596231   -8.68140182 -0.67615317   0.0   0.0   0.0
   -5.49721330  -14.43372814   -7.87826821  0.41023226   0.0   0.0   0.0
   -5.19296739  -10.32735327  -15.16127270  0.59734697   0.0   0.0   0.0
   -7.28489421   -9.60547789  -15.82645629 -0.56794466   0.0   0.0   0.0
   -3.35804332  -11.01899303  -16.78643716 -0.41573269   0.0   0.0   0.0
   -1.66862817  -11.60858758  -16.12503302  0.27192138   0.0   0.0   0.0
   -3.81724677  -11.15883277  -19.47929689 -0.05180407   0.0   0.0   0.0
   -5.59547905  -10.23475669  -19.95739760  0.09220725   0.0   0.0   0.0
   -1.69886379   -9.83035530  -20.85690724 -0.11020867   0.0   0.0   0.0
   -0.47054181   -9.48642515  -19.23930167  0.04570359   0.0   0.0   0.0
   -0.91840690  -11.35725401  -21.99641209  0.04570359   0.0   0.0   0.0
   -1.87649804   -7.45119011  -22.44238746  0.35312777   0.0   0.0   0.0
   -3.03301043   -7.86881958  -24.09589781 -0.03610284   0.0   0.0   0.0
   -3.04812824   -5.24210027  -20.97595998 -0.41213241   0.0   0.0   0.0
   -1.89161585   -4.82447080  -19.32244962  0.10000786   0.0   0.0   0.0
   -3.13505564   -3.58103101  -22.18916415  0.10000786   0.0   0.0   0.0
   -4.95108245   -5.75043660  -20.37124762  0.10000786   0.0   0.0   0.0
    0.75211100   -6.83513939  -23.33055873 -0.41213241   0.0   0.0   0.0
    1.48343501   -8.39983262  -24.45305605  0.10000786   0.0   0.0   0.0
    0.70675757   -5.12871670  -24.48329167  0.10000786   0.0   0.0   0.0
    1.97476380   -6.52900376  -21.70161481  0.10000786   0.0   0.0   0.0
   -3.62827416  -13.90271510  -20.14825994  0.59734697   0.0   0.0   0.0
   -1.79335009  -15.12347817  -19.39425922 -0.56794466   0.0   0.0   0.0
   -5.48020576  -14.88726241  -21.50508330 -0.41573269   0.0   0.0   0.0
   -7.04678872  -13.85547195  -21.85846208  0.27192138   0.0   0.0   0.0
   -5.34225575  -17.48752556  -22.54065321 -0.08750688   0.0   0.0   0.0
   -3.57914128  -18.40782218  -22.00208127  0.09690762   0.0   0.0   0.0
   -7.57969149  -19.18827907  -21.70350454  0.29852347   0.0   0.0   0.0
   -9.33902651  -18.29254889  -22.29498882 -0.02970234   0.0   0.0   0.0
   -7.39638805  -21.85657236  -22.89214227 -0.31922510   0.0   0.0   0.0
   -5.63894276  -22.75230254  -22.30254772  0.07910622   0.0   0.0   0.0
   -8.99131690  -22.99985666  -22.26664293  0.07910622   0.0   0.0   0.0
   -7.42851340  -21.69783536  -24.94627457  0.07910622   0.0   0.0   0.0
   -7.61370656  -19.30166264  -18.79899549 -0.31922510   0.0   0.0   0.0
   -7.85181205  -17.40248788  -18.03932559  0.07910622   0.0   0.0   0.0
   -9.17651006  -20.49030037  -18.17538587  0.07910622   0.0   0.0   0.0
   -5.83736400  -20.09345788  -18.12058381  0.07910622   0.0   0.0   0.0
   -5.36871192  -17.26075842  -25.37524240  0.59734697   0.0   0.0   0.0
   -7.14127502  -16.20251179  -26.46372465 -0.56794466   0.0   0.0   0.0
   -3.41095565  -18.26609272  -26.59978493 -0.41573269   0.0   0.0   0.0
   -2.05602202  -19.22607359  -25.65870132  0.27192138   0.0   0.0   0.0
   -3.16718098  -18.00153106  -29.33421863 -0.05970469   0.0   0.0   0.0
   -4.83391943  -17.06422690  -30.09766799  0.08690683   0.0   0.0   0.0
   -0.73321374  -16.45384537  -30.07310155  0.13031025   0.0   0.0   0.0
    0.89006100  -17.30233240  -29.13012821  0.01870147   0.0   0.0   0.0
   -0.30235618  -16.45762482  -32.89257292 -0.32042520   0.0   0.0   0.0
   -1.92374119  -15.60724806  -33.83743599  0.08820694   0.0   0.0   0.0
    1.39272815  -15.37292202  -33.33098939  0.08820694   0.0   0.0   0.0
   -0.06425069  -18.39459410  -33.54830789  0.08820694   0.0   0.0   0.0
   -0.96753978  -13.66460961  -29.11690013 -0.04300338   0.0   0.0   0.0
   -2.26011244  -12.73675408  -30.42648033  0.02360186   0.0   0.0   0.0
   -1.84626242  -13.78744180  -27.25740962  0.02360186   0.0   0.0   0.0
    1.36060281  -12.20385131  -28.93548642 -0.06600519   0.0   0.0   0.0
    2.24121518  -12.07912939  -30.79308720  0.01860146   0.0   0.0   0.0
    0.93163498  -10.30845601  -28.25140556  0.01860146   0.0   0.0   0.0
    2.65317548  -13.12981711  -27.62590622  0.01860146   0.0   0.0   0.0
   -2.99899536  -20.63391955  -30.48317212  0.59734697   0.0   0.0   0.0
   -1.45886857  -22.15892854  -29.77641454 -0.56794466   0.0   0.0   0.0
   -4.59581393  -21.04587985  -32.28597084 -0.51634060   0.0   0.0   0.0
   -5.93374003  -19.72307156  -32.60533455  0.29362309   0.0   0.0   0.0
   -4.52400434  -23.28142585  -33.94704010  0.03810300   0.0   0.0   0.0
   -3.19552688  -24.66659510  -33.19870856  0.08800692   0.0   0.0   0.0
   -7.12426749  -24.49651975  -34.10577710 -0.03030238   0.0   0.0   0.0
   -7.86881958  -24.75541223  -32.20282289 -0.01220096   0.0   0.0   0.0
   -8.33747166  -23.19449845  -35.14512646 -0.01220096   0.0   0.0   0.0
   -7.05623735  -27.03064249  -35.46071073  0.79946286   0.0   0.0   0.0
   -7.42851340  -28.97706039  -34.11711545 -0.80146302   0.0   0.0   0.0
   -6.69718939  -27.17615140  -37.80775057 -0.80146302   0.0   0.0   0.0
   -3.78701115  -22.36868814  -36.57942859  0.53664220   0.0   0.0   0.0
   -5.09848108  -20.89848121  -37.73972043 -0.58194576   0.0   0.0   0.0
   -1.65540009  -23.24174161  -37.50917385 -0.41573269   0.0   0.0   0.0
   -0.69919867  -24.48518140  -36.42069160  0.27192138   0.0   0.0   0.0
   -0.56502811  -22.53876349  -40.00361233 -0.00310024   0.0   0.0   0.0
   -1.76500420  -21.20461684  -41.01461581  0.08500668   0.0   0.0   0.0
    1.95208709  -21.27831616  -39.46126093 -0.00360028   0.0   0.0   0.0
    1.49099391  -19.54543731  -38.44836773  0.01710134   0.0   0.0   0.0
    2.94986248  -22.56521965  -38.20081361  0.01710134   0.0   0.0   0.0
    3.59992827  -20.66415517  -41.67790968 -0.06450507   0.0   0.0   0.0
    4.11960295  -22.41215184  -42.63600082  0.03520277   0.0   0.0   0.0
    2.56435835  -19.45095100  -42.97993098  0.03520277   0.0   0.0   0.0
    5.96208592  -19.33189825  -40.88611443  0.69515466   0.0   0.0   0.0
    6.31168526  -18.73096535  -38.69025267 -0.60864786   0.0   0.0   0.0
    7.65150108  -18.83679001  -42.70970014 -0.94077397   0.0   0.0   0.0
    9.28044500  -17.93917010  -42.27695286  0.42513343   0.0   0.0   0.0
    7.28867366  -19.36213387  -44.50871941  0.42513343   0.0   0.0   0.0
   -0.20786987  -24.88013416  -41.60798981  0.59734697   0.0   0.0   0.0
    1.12249732  -26.66025617  -40.87855553 -0.56794466   0.0   0.0   0.0
   -1.46642747  -24.87446498  -43.73015225 -0.51634060   0.0   0.0   0.0
   -2.50388712  -23.36079435  -44.25360639  0.29362309   0.0   0.0   0.0
   -1.39461788  -27.07977537  -45.43279549  0.03810300   0.0   0.0   0.0
    0.12094247  -28.38368639  -44.93957697  0.08800692   0.0   0.0   0.0
   -3.89094609  -28.41581174  -45.09831396 -0.03030238   0.0   0.0   0.0
   -3.83803376  -29.31343164  -43.24638236 -0.01220096   0.0   0.0   0.0
   -5.36871192  -26.97961988  -45.12288040 -0.01220096   0.0   0.0   0.0
   -4.44085639  -30.37167827  -47.08252639  0.79946286   0.0   0.0   0.0
   -2.69663918  -31.30520298  -48.36187098 -0.80146302   0.0   0.0   0.0
   -6.71986610  -30.95182419  -47.34708805 -0.80146302   0.0   0.0   0.0
   -1.06580553  -26.02908764  -48.08597097  0.53664220   0.0   0.0   0.0
   -2.86671453  -25.25052048  -49.22925527 -0.58194576   0.0   0.0   0.0
    1.28690349  -26.11223559  -48.97981142 -0.41573269   0.0   0.0   0.0
    2.66829329  -26.99284796  -48.00093329  0.27192138   0.0   0.0   0.0
    1.94263846  -24.92737731  -51.41188894 -0.02520198   0.0   0.0   0.0
    3.95897623  -25.13335746  -51.77471636  0.06980549   0.0   0.0   0.0
    0.87872265  -25.81176914  -52.93689793  0.06980549   0.0   0.0   0.0
    1.27556513  -22.07011141  -51.31362319  0.59734697   0.0   0.0   0.0
    2.32814259  -20.75675175  -49.70546625 -0.56794466   0.0   0.0   0.0
   -0.30424591  -21.20272712  -53.04461232 -0.51634060   0.0   0.0   0.0
   -0.82203086  -22.25152512  -54.55261376  0.29362309   0.0   0.0   0.0
   -1.20186582  -18.49285985  -52.90666231  0.03810300   0.0   0.0   0.0
    0.31180481  -17.32689884  -52.13754378  0.08800692   0.0   0.0   0.0
   -1.94074873  -17.45540021  -55.49369737 -0.03030238   0.0   0.0   0.0
   -3.46764744  -18.60246397  -56.26470563 -0.01220096   0.0   0.0   0.0
   -2.61160150  -15.53165902  -55.19323092 -0.01220096   0.0   0.0   0.0
    0.16818563  -17.42516459  -57.26437075  0.79946286   0.0   0.0   0.0
   -0.30046645  -17.96751599  -59.54338046 -0.80146302   0.0   0.0   0.0
    2.31302478  -16.82612141  -56.48958304 -0.80146302   0.0   0.0   0.0
   -3.37505086  -18.03176668  -51.05095126  0.53664220   0.0   0.0   0.0
   -4.07235980  -15.85480219  -50.45946698 -0.58194576   0.0   0.0   0.0
   -4.49376872  -20.01786884  -50.00782243 -0.41573269   0.0   0.0   0.0
   -3.84370294  -21.80554975  -50.15522107  0.27192138   0.0   0.0   0.0
   -6.77655788  -19.59079073  -48.59997647  0.01430112   0.0   0.0   0.0
   -7.72142094  -17.89003722  -49.27649842  0.10480824   0.0   0.0   0.0
   -8.56990797  -21.84523400  -48.94012717 -0.20411605   0.0   0.0   0.0
   -7.43418257  -23.48740600  -48.42990112  0.07970627   0.0   0.0   0.0
  -10.23853614  -21.76397578  -47.73448191  0.07970627   0.0   0.0   0.0
   -9.42595391  -22.13247237  -51.67834033  0.71305607   0.0   0.0   0.0
   -9.97208476  -24.25085536  -52.52682736 -0.59314664   0.0   0.0   0.0
   -9.34847514  -20.10479624  -53.14098835 -0.91917227   0.0   0.0   0.0
   -9.90216489  -20.22762844  -54.96268433  0.41963300   0.0   0.0   0.0
   -8.73620387  -18.44372698  -52.42856160  0.41963300   0.0   0.0   0.0
   -6.28711882  -19.26386811  -45.87499140  0.59734697   0.0   0.0   0.0
   -5.12682698  -20.93060656  -44.62588243 -0.56794466   0.0   0.0   0.0
   -7.11292913  -17.13036732  -44.86398792 -0.41573269   0.0   0.0   0.0
   -8.15038878  -15.85291246  -45.82963797  0.27192138   0.0   0.0   0.0
   -6.69340993  -16.70706867  -42.16923847 -0.00240019   0.0   0.0   0.0
   -5.50099275  -18.21129066  -41.42090692  0.09780769   0.0   0.0   0.0
   -5.37249137  -14.13137196  -41.67601995 -0.03430270   0.0   0.0   0.0
   -6.08302839  -12.60636298  -42.86465768  0.02950232   0.0   0.0   0.0
   -5.70508317  -13.67027879  -39.69558697  0.02950232   0.0   0.0   0.0
   -2.58325561  -14.19373292  -42.03128846  0.01180093   0.0   0.0   0.0
   -1.58359049  -14.40538225  -44.44446872 -0.12560988   0.0   0.0   0.0
   -2.74388233  -14.49041992  -46.14333251  0.13301046   0.0   0.0   0.0
    1.10171033  -14.51120691  -44.64100024 -0.17041340   0.0   0.0   0.0
    1.89917476  -14.81356309  -46.51560856  0.14301125   0.0   0.0   0.0
    2.62293986  -14.25798361  -42.65300836 -0.10720843   0.0   0.0   0.0
    4.64494681  -14.26176306  -43.04607139  0.12971020   0.0   0.0   0.0
    1.76500420  -13.99720140  -40.18313631 -0.17041340   0.0   0.0   0.0
    2.97442892  -13.89515619  -38.51828760  0.14301125   0.0   0.0   0.0
   -0.89573018  -13.86303085  -39.91479520 -0.12560988   0.0   0.0   0.0
   -1.72720968  -13.50020343  -38.06475333  0.13301046   0.0   0.0   0.0
   -9.22753267  -16.46896318  -40.83698155  0.59734697   0.0   0.0   0.0
  -11.04733892  -15.45418025  -41.82719804 -0.56794466   0.0   0.0   0.0
   -9.24831965  -17.26831733  -38.49561088 -0.34792736   0.0   0.0   0.0
   -7.63071409  -18.09790709  -37.91735469  0.27472160   0.0   0.0   0.0
  -11.27599579  -16.89604128  -36.63423065 -0.24001887   0.0   0.0   0.0
  -12.81234312  -15.76220560  -37.40712864  0.14261121   0.0   0.0   0.0
  -12.31156570  -19.53598868  -35.96526760 -0.00940074   0.0   0.0   0.0
  -10.72041630  -20.75297230  -35.48905662  0.03620285   0.0   0.0   0.0
  -13.54555686  -19.35079552  -34.32687505  0.03620285   0.0   0.0   0.0
  -13.73452947  -20.65470654  -38.07420196  0.01870147   0.0   0.0   0.0
  -15.13670626  -19.29221401  -38.72426774  0.01030081   0.0   0.0   0.0
  -12.42494927  -21.07422574  -39.60865957  0.01030081   0.0   0.0   0.0
  -15.07245557  -23.10379160  -37.24272246 -0.04790377   0.0   0.0   0.0
  -13.73263975  -24.31321632  -36.25061625  0.06210488   0.0   0.0   0.0
  -16.63714880  -22.63891897  -35.98605459  0.06210488   0.0   0.0   0.0
  -16.05133370  -24.44549715  -39.49149655 -0.01430112   0.0   0.0   0.0
  -17.40815706  -25.89491708  -38.94536570  0.11350893   0.0   0.0   0.0
  -16.94328443  -23.12835804  -40.79918703  0.11350893   0.0   0.0   0.0
  -13.84224386  -25.65303214  -40.74060552 -0.38543031   0.0   0.0   0.0
  -13.01454382  -26.87379522  -39.52929107  0.34002674   0.0   0.0   0.0
  -14.42616923  -26.59600548  -42.29396039  0.34002674   0.0   0.0   0.0
  -12.58557599  -24.30943687  -41.24705212  0.34002674   0.0   0.0   0.0
  -10.10247586  -15.84157410  -34.26829354  0.73415773   0.0   0.0   0.0
   -8.51321619  -17.11147006  -33.14390650 -0.58944635   0.0   0.0   0.0
  -10.71663685  -13.48697535  -33.56342570 -0.41573269   0.0   0.0   0.0
  -12.04511432  -12.49675886  -34.51017849  0.27192138   0.0   0.0   0.0
   -9.53555802  -12.32101433  -31.39024066 -0.08750688   0.0   0.0   0.0
   -8.10881480  -13.55500549  -30.56254061  0.09690762   0.0   0.0   0.0
   -8.25810316   -9.74342790  -32.10644686  0.29852347   0.0   0.0   0.0
   -9.68673611   -8.42439906  -32.78485854 -0.02970234   0.0   0.0   0.0
   -6.95230241   -8.63226894  -29.72917139 -0.31922510   0.0   0.0   0.0
   -5.52177974   -9.95129777  -29.05075971  0.07910622   0.0   0.0   0.0
   -6.05846196   -6.83891884  -30.20916183  0.07910622   0.0   0.0   0.0
   -8.35636892   -8.32424358  -28.25329529  0.07910622   0.0   0.0   0.0
   -6.40806129  -10.16105737  -34.22294012 -0.31922510   0.0   0.0   0.0
   -7.39827778  -10.91505810  -35.86322239  0.07910622   0.0   0.0   0.0
   -5.51989001   -8.37148673  -34.72182781  0.07910622   0.0   0.0   0.0
   -4.96242080  -11.49898347  -33.62011748  0.07910622   0.0   0.0   0.0
  -11.62370539  -11.81456773  -29.47972754  0.59734697   0.0   0.0   0.0
  -13.62303563  -10.79411562  -30.14869059 -0.56794466   0.0   0.0   0.0
  -11.33268757  -12.88037327  -27.21961510 -0.34792736   0.0   0.0   0.0
   -9.90972380  -14.12570278  -26.96072262  0.27472160   0.0   0.0   0.0
  -13.00320546  -12.27566091  -25.01997389 -0.24001887   0.0   0.0   0.0
  -14.57356787  -11.10781016  -25.66626022  0.14261121   0.0   0.0   0.0
  -14.05578291  -14.67939254  -23.89747657 -0.00940074   0.0   0.0   0.0
  -15.12347817  -15.69795492  -25.33366843  0.03620285   0.0   0.0   0.0
  -12.50809722  -15.86047136  -23.22662380  0.03620285   0.0   0.0   0.0
  -15.79244122  -14.02932675  -21.69216618  0.01870147   0.0   0.0   0.0
  -14.72474596  -13.01076437  -20.25408460  0.01030081   0.0   0.0   0.0
  -17.34201665  -12.84824792  -22.36112923  0.01030081   0.0   0.0   0.0
  -16.85446730  -16.45573509  -20.55833051 -0.04790377   0.0   0.0   0.0
  -17.92216257  -17.47618720  -21.99452236  0.06210488   0.0   0.0   0.0
  -15.30678161  -17.63681392  -19.88747773  0.06210488   0.0   0.0   0.0
  -18.59112561  -15.80566931  -18.35113040 -0.01430112   0.0   0.0   0.0
  -17.52532008  -14.78710692  -16.91493854  0.11350893   0.0   0.0   0.0
  -20.14070104  -14.62648020  -19.02009344  0.11350893   0.0   0.0   0.0
  -19.61535717  -18.14515025  -17.25886870 -0.38543031   0.0   0.0   0.0
  -18.18105504  -19.23930167  -16.63714880  0.34002674   0.0   0.0   0.0
  -20.76620038  -17.71618242  -15.79811040  0.34002674   0.0   0.0   0.0
  -20.60557366  -19.09001331  -18.59112561  0.34002674   0.0   0.0   0.0
  -11.61803621  -10.91505810  -22.87702446  0.73415773   0.0   0.0   0.0
   -9.77555324  -11.86936979  -21.84901345 -0.58944635   0.0   0.0   0.0
  -12.55345065   -8.73242442  -22.10412648 -0.41573269   0.0   0.0   0.0
  -14.08223908   -8.01810795  -22.99607721  0.27192138   0.0   0.0   0.0
  -11.45929922   -7.29623257  -20.07078117  0.02130167   0.0   0.0   0.0
   -9.71130255   -8.19196275  -19.45095100  0.11240884   0.0   0.0   0.0
  -10.86403549   -4.60904202  -20.92493738 -0.12310968   0.0   0.0   0.0
  -12.42305954   -3.35804332  -20.42793941  0.11120874   0.0   0.0   0.0
   -9.14060526   -3.95330705  -20.00842021  0.11120874   0.0   0.0   0.0
  -10.33680190   -4.18763309  -24.46061496 -0.31192453   0.0   0.0   0.0
   -9.90027517   -1.71398159  -24.36801838  0.19331520   0.0   0.0   0.0
  -13.35847397   -7.29812229  -17.92783174  0.59734697   0.0   0.0   0.0
  -15.40693709   -6.60459281  -18.26798245 -0.56794466   0.0   0.0   0.0
  -12.57234791   -8.13527097  -15.73952889 -0.41573269   0.0   0.0   0.0
  -10.78844645   -8.77777785  -15.52221039  0.27192138   0.0   0.0   0.0
  -14.31656512   -8.39605317  -13.63248426 -0.03890306   0.0   0.0   0.0
  -16.09290768   -7.40772641  -13.96507606  0.10070792   0.0   0.0   0.0
  -14.90804940  -11.24576017  -13.06556643  0.36542873   0.0   0.0   0.0
  -16.32345426  -11.28166496  -11.57079306  0.00430034   0.0   0.0   0.0
  -15.90582479  -12.78021778  -15.41449600 -0.24381917   0.0   0.0   0.0
  -14.49041992  -12.74431298  -16.91115909  0.06420505   0.0   0.0   0.0
  -16.26676248  -14.73041514  -14.85891652  0.06420505   0.0   0.0   0.0
  -17.65004200  -11.92795130  -16.10235631  0.06420505   0.0   0.0   0.0
  -12.71974654  -12.43061845  -12.07157048 -0.67615317   0.0   0.0   0.0
  -13.08068423  -14.17483566  -11.72386088  0.41023226   0.0   0.0   0.0
  -13.42461439   -7.01466337  -11.23820126  0.59734697   0.0   0.0   0.0
  -11.14371496   -6.62726952  -10.83568960 -0.56794466   0.0   0.0   0.0
  -15.24253092   -6.23042703   -9.64138269 -0.41573269   0.0   0.0   0.0
  -17.05288855   -6.65750514  -10.06657107  0.27192138   0.0   0.0   0.0
  -14.70962815   -4.94541327   -7.17529009 -0.02490196   0.0   0.0   0.0
  -12.92194724   -5.62382495   -6.40806129  0.08430663   0.0   0.0   0.0
  -14.53388362   -2.12594189   -7.53622778  0.21171665   0.0   0.0   0.0
  -13.68917605   -1.32091856   -5.83925372  0.03520277   0.0   0.0   0.0
  -13.30556164   -1.76878365   -9.15005390  0.03520277   0.0   0.0   0.0
  -16.95840224   -0.97698841   -7.97275452 -0.65465148   0.0   0.0   0.0
  -16.74864264    0.81258223   -8.19007302  0.42753362   0.0   0.0   0.0
  -17.07556526   -5.51233111   -5.70130372  0.59734697   0.0   0.0   0.0
  -18.86135645   -6.72553528   -6.71041747 -0.56794466   0.0   0.0   0.0
  -17.13792622   -4.49943790   -3.39394812 -0.41573269   0.0   0.0   0.0
  -15.78299259   -3.27867483   -2.83269946  0.27192138   0.0   0.0   0.0
  -19.20150715   -5.04745848   -1.65917954 -0.03890306   0.0   0.0   0.0
  -19.24119140   -7.06568598   -1.24910897  0.10070792   0.0   0.0   0.0
  -18.84056946   -3.62260498    0.79557470  0.36542873   0.0   0.0   0.0
  -18.95773248   -1.60059803    0.42329865  0.00430034   0.0   0.0   0.0
  -20.85690724   -4.36337762    2.67585219 -0.24381917   0.0   0.0   0.0
  -20.73974422   -6.38538457    3.04812824  0.06420505   0.0   0.0   0.0
  -20.57533804   -3.32402825    4.43140776  0.06420505   0.0   0.0   0.0
  -22.71450802   -3.91551253    1.90484393  0.06420505   0.0   0.0   0.0
  -16.42738920   -4.24621460    1.79335009 -0.67615317   0.0   0.0   0.0
  -16.17038645   -3.35615360    3.35237414  0.41023226   0.0   0.0   0.0
  -21.76019632   -4.25188378   -2.57191726  0.59734697   0.0   0.0   0.0
  -23.62724574   -5.55768453   -2.01822750 -0.56794466   0.0   0.0   0.0
  -21.85468263   -2.05980148   -3.80401869 -0.41573269   0.0   0.0   0.0
  -20.22384899   -1.09037197   -4.01566801  0.27192138   0.0   0.0   0.0
  -24.28487043   -0.78801579   -4.54290160 -0.00240019   0.0   0.0   0.0
  -25.84767393   -1.95964599   -3.88716664  0.09780769   0.0   0.0   0.0
  -24.59667524    1.91051311   -3.41851456 -0.03430270   0.0   0.0   0.0
  -23.07733543    3.14261455   -4.06480089  0.02950232   0.0   0.0   0.0
  -26.41081232    2.70041863   -3.99299130  0.02950232   0.0   0.0   0.0
  -24.54376291    1.97476380   -0.59337400  0.01180093   0.0   0.0   0.0
  -26.61490274    1.11304869    0.82581032 -0.12560988   0.0   0.0   0.0
  -28.30809735    0.44030619   -0.13606028  0.13301046   0.0   0.0   0.0
  -26.50718835    1.11682814    3.48654470 -0.17041340   0.0   0.0   0.0
  -28.10778638    0.38739386    4.55801941  0.14301125   0.0   0.0   0.0
  -24.37179783    2.04468367    4.75833038 -0.10720843   0.0   0.0   0.0
  -24.28864988    2.07680901    6.81624213  0.12971020   0.0   0.0   0.0
  -22.33278334    2.93663440    3.34292551 -0.17041340   0.0   0.0   0.0
  -20.65848599    3.68307622    4.28400912  0.14301125   0.0   0.0   0.0
  -22.44616691    2.86860426    0.66707332 -0.12560988   0.0   0.0   0.0
  -20.84745861    3.53378785   -0.44786509  0.13301046   0.0   0.0   0.0
  -24.98973827   -0.71998565   -7.34158599  0.59734697   0.0   0.0   0.0
  -27.24040209   -0.63683770   -8.00487986 -0.56794466   0.0   0.0   0.0
  -23.06221762   -0.54991030   -8.93840457 -0.41573269   0.0   0.0   0.0
  -21.29532370   -0.81447196   -8.26755179  0.27192138   0.0   0.0   0.0
  -23.37402243   -0.07369932  -11.59724923 -0.02750216   0.0   0.0   0.0
  -25.29965336   -0.51967468  -12.17928487  0.11230883   0.0   0.0   0.0
  -22.86757583    2.70230836  -12.15093898 -0.00500039   0.0   0.0   0.0
  -20.93816546    3.15962208  -11.59346977  0.03390267   0.0   0.0   0.0
  -23.14347585    3.19363715  -14.13137196  0.03390267   0.0   0.0   0.0
  -24.53998345    4.37093653  -10.67506288 -0.14151113   0.0   0.0   0.0
  -27.08544454    4.79990436  -11.07001564 -0.16381288   0.0   0.0   0.0
  -27.97361582    3.81157759  -12.64415750  0.20621622   0.0   0.0   0.0
  -27.98873363    6.48176061   -9.28044500 -0.34182688   0.0   0.0   0.0
  -29.79531181    7.07324488   -9.11981828  0.34122683   0.0   0.0   0.0
  -26.01774928    7.21497434   -7.75165656  0.13801085   0.0   0.0   0.0
  -25.99318284    8.87604361   -5.71453180 -0.26012045   0.0   0.0   0.0
  -27.76196650    9.79634023   -5.19674684  0.15721236   0.0   0.0   0.0
  -23.72929095    9.25965801   -4.47109201 -0.11340892   0.0   0.0   0.0
  -23.65937108   10.55601013   -2.87238371  0.14171114   0.0   0.0   0.0
  -21.50130385    8.01432849   -5.21942356 -0.19721551   0.0   0.0   0.0
  -19.71740238    8.31290522   -4.23487625  0.14471138   0.0   0.0   0.0
  -21.52398056    6.32302361   -7.29623257 -0.23871877   0.0   0.0   0.0
  -19.79110170    5.30635096   -7.75165656  0.17001337   0.0   0.0   0.0
  -23.80865944    5.94129894   -8.59447441  0.12430977   0.0   0.0   0.0
  -21.51642165   -1.59114940  -13.10525067  0.59734697   0.0   0.0   0.0
  -19.26575784   -1.81224735  -12.42683900 -0.56794466   0.0   0.0   0.0
  -22.42349019   -2.80057412  -15.11213982 -0.41573269   0.0   0.0   0.0
  -24.30376769   -2.97820837  -15.38803983  0.27192138   0.0   0.0   0.0
  -20.68683189   -4.15928720  -16.85257758  0.01430112   0.0   0.0   0.0
  -18.74230370   -3.66417896  -16.38581523  0.10480824   0.0   0.0   0.0
  -20.98540861   -7.05434762  -16.65226661 -0.20411605   0.0   0.0   0.0
  -19.22040441   -7.93118054  -17.25319952  0.07970627   0.0   0.0   0.0
  -21.36524356   -7.55134559  -14.69073089  0.07970627   0.0   0.0   0.0
  -23.09056352   -8.05779220  -18.26609272  0.71305607   0.0   0.0   0.0
  -25.11257047   -6.94663323  -18.35302012 -0.59314664   0.0   0.0   0.0
  -22.64647788  -10.17995463  -19.55299621 -0.91917227   0.0   0.0   0.0
  -24.01274986  -10.92072727  -20.66226545  0.41963300   0.0   0.0   0.0
  -20.94761409  -11.03600057  -19.41126675  0.41963300   0.0   0.0   0.0
  -20.97973943   -3.21631386  -19.56811402  0.59734697   0.0   0.0   0.0
  -22.96773132   -2.15050833  -20.20684145 -0.56794466   0.0   0.0   0.0
  -18.99363728   -3.52244950  -21.11768944 -0.41573269   0.0   0.0   0.0
  -17.44217213   -4.43140776  -20.48085174  0.27192138   0.0   0.0   0.0
  -18.99552700   -2.60593233  -23.71228341 -0.00140011   0.0   0.0   0.0
  -20.90604012   -2.02578641  -24.21873001  0.08760689   0.0   0.0   0.0
  -17.20217691   -0.32881235  -24.07133137 -0.01520120   0.0   0.0   0.0
  -17.62547556    0.98832676  -22.54632239  0.02950232   0.0   0.0   0.0
  -15.20284667   -0.82203086  -24.01652932  0.02950232   0.0   0.0   0.0
[...]
       47 C17    2px        0.0051    0.0688    0.0835   -0.0114    0.0051    0.0313   -0.0175
       48 C17    2py       -0.0786   -0.0933   -0.1133    0.0166   -0.0045   -0.0091    0.0309
       49 C17    2pz        0.0162    0.3067    0.2737   -0.0274    0.0088    0.0360    0.0407
       50 H18    1s         0.0021    0.3482    0.3626   -0.0443    0.0137    0.0516    0.0227
       51 C19    1s         0.0027    0.0038   -0.0038    0.0019   -0.0005    0.0191   -0.0084
       52 C19    2s        -0.0160   -0.0233    0.0199   -0.0111    0.0031   -0.1162    0.0552
       53 C19    2px        0.0240    0.0426    0.0350    0.0005   -0.0097   -0.0036    0.0472
       54 C19    2py        0.0066   -0.0961   -0.0691    0.0018    0.0007   -0.0138   -0.0465
       55 C19    2pz        0.0657    0.2298    0.2052   -0.0194    0.0027   -0.0150    0.0401
       56 H20    1s        -0.0382   -0.2452   -0.2221    0.0214   -0.0004    0.0270   -0.1066
       57 C21    1s        -0.0027   -0.0289   -0.0119   -0.0031   -0.0015   -0.0156   -0.0346
       58 C21    2s         0.0156    0.1724    0.0721    0.0181    0.0076    0.0953    0.2070
       59 C21    2px       -0.0089    0.0025    0.0040   -0.0052    0.0021    0.0262   -0.0875
       60 C21    2py       -0.0265   -0.0602   -0.0683    0.0082    0.0158   -0.0280    0.0218
       61 C21    2pz        0.0244    0.2384    0.1296    0.0016   -0.0005    0.0047    0.1727
       62 C22    1s        -0.0033    0.0061    0.0039   -0.0006    0.0006    0.0039   -0.0018
       63 C22    2s         0.0188   -0.0418   -0.0288    0.0037   -0.0028   -0.0227    0.0111
       64 C22    2px        0.0016   -0.0321   -0.0505   -0.0150   -0.0078   -0.0033   -0.0964
       65 C22    2py       -0.0160   -0.0179   -0.0120   -0.0169    0.0240    0.0044    0.0541
       66 C22    2pz        0.0139    0.2261    0.2044   -0.0322    0.0052   -0.0147    0.0472
       67 H23    1s         0.0039    0.2072    0.1775   -0.0233    0.0131   -0.0084    0.0989
       68 H24    1s         0.0040   -0.0214   -0.0104    0.0215   -0.0209    0.0128   -0.0485
       69 H25    1s        -0.0141   -0.0270   -0.0413   -0.0139   -0.0007    0.0107   -0.0934
       70 C26    1s         0.0045    0.0344    0.0110    0.0034    0.0044   -0.0000    0.0297
       71 C26    2s        -0.0260   -0.2005   -0.0641   -0.0172   -0.0274    0.0024   -0.1666
       72 C26    2px        0.0050    0.0159    0.0179    0.0123   -0.0393    0.0264    0.0339
       73 C26    2py        0.0111   -0.0404    0.0488    0.0019   -0.0082   -0.0049    0.0207
       74 C26    2pz        0.0278    0.2383    0.1778   -0.0078   -0.0163    0.0504    0.1931
       75 H27    1s        -0.0055   -0.1036   -0.0616    0.0008    0.0425   -0.0582   -0.0801
       76 C28    1s        -0.0022   -0.0193   -0.0097   -0.0234    0.0001   -0.0112   -0.0688
       77 C28    2s         0.0121    0.1116    0.0501    0.1366    0.0000    0.0662    0.4065
       78 C28    2px        0.0044    0.1062   -0.0356   -0.0590    0.0105   -0.0104   -0.1122
       79 C28    2py       -0.0094    0.0095   -0.0862   -0.0086    0.0414   -0.0099   -0.0308
       80 C28    2pz        0.0104    0.2187    0.0420    0.0652   -0.0169    0.0730    0.3477
       81 H29    1s         0.0086    0.1584    0.0058   -0.0754   -0.0226    0.0093   -0.0586
       82 C30    1s         0.0014   -0.0271    0.0800    0.0280   -0.0145    0.0170    0.0860
       83 C30    2s        -0.0083    0.1555   -0.4639   -0.1458    0.0752   -0.1007   -0.5045
       84 C30    2px       -0.0051   -0.0863   -0.0047   -0.0126   -0.0570   -0.0149   -0.0521
       85 C30    2py       -0.0034   -0.1756    0.2309    0.1347   -0.0694    0.0315    0.1975
       86 C30    2pz        0.0140    0.3424   -0.1802    0.0059    0.0268    0.0441    0.2296
       87 C31    1s         0.0007    0.0215   -0.0232   -0.0116    0.0188   -0.0021   -0.0130
       88 C31    2s        -0.0038   -0.1203    0.1300    0.0660   -0.1045    0.0118    0.0737
       89 C31    2px       -0.0013   -0.0655    0.0142    0.0406    0.3380   -0.0164   -0.1786
       90 C31    2py       -0.0028   -0.2034    0.3116    0.2315    0.0570    0.0607    0.3986
       91 C31    2pz        0.0061    0.3235   -0.3042    0.1105    0.1171    0.0178    0.1996
       92 C32    1s        -0.0004   -0.0062   -0.0033   -0.0342   -0.0319   -0.0050   -0.0348
       93 C32    2s         0.0024    0.0365    0.0178    0.1922    0.1785    0.0283    0.1961
       94 C32    2px        0.0013    0.0078    0.0002    0.0578    0.2035    0.0003   -0.0461
       95 C32    2py        0.0006   -0.0597    0.1367    0.1884    0.1504    0.0420    0.2929
       96 C32    2pz        0.0015    0.1452   -0.1493    0.0509    0.1261    0.0108    0.1062
       97 H33    1s         0.0002    0.1233   -0.1455   -0.0561   -0.0678    0.0023    0.0742
       98 H34    1s         0.0004    0.0285   -0.0589   -0.0433    0.1226   -0.0180   -0.1688
       99 H35    1s        -0.0023   -0.1843    0.2255    0.0384   -0.0691    0.0152    0.0902
      100 C36    1s        -0.0004   -0.0079   -0.0058   -0.0030    0.0171   -0.0046   -0.0162
      101 C36    2s         0.0025    0.0475    0.0315    0.0217   -0.0852    0.0270    0.0903
      102 C36    2px       -0.0003   -0.0253    0.0155    0.0803    0.2747    0.0026   -0.1072
      103 C36    2py       -0.0021   -0.1373    0.1685    0.1050    0.0419    0.0188    0.1778
      104 C36    2pz       -0.0006    0.0864   -0.1605    0.0915    0.2470   -0.0214   -0.0174
      105 H37    1s        -0.0030   -0.2027    0.2308    0.0321   -0.0505    0.0149    0.1013
      106 H38    1s         0.0008    0.0550   -0.0847   -0.1715   -0.1885   -0.0233   -0.1768
      107 H39    1s        -0.0005    0.0703   -0.1248    0.0561    0.0898   -0.0144    0.0866
      108 C40    1s         0.0001    0.0052   -0.0012   -0.0387   -0.0047    0.0063    0.0500
      109 C40    2s        -0.0006   -0.0191   -0.0057    0.2220    0.0193   -0.0376   -0.2935
      110 C40    2px       -0.0008   -0.0409   -0.0080    0.0488    0.4527   -0.0188   -0.1914
      111 C40    2py        0.0005   -0.0887    0.2117    0.3721   -0.0370    0.0354    0.2317
      112 C40    2pz        0.0039    0.2368   -0.2032    0.2740    0.1991    0.0165    0.1714
      113 H41    1s        -0.0021   -0.2208    0.3158   -0.0318   -0.3244    0.0378    0.2387
      114 H42    1s         0.0004    0.0126   -0.0362    0.0437    0.5335    0.0054    0.0010
      115 C43    1s         0.0004    0.0010    0.0126   -0.0159    0.0192    0.0086    0.0494
      116 C43    2s        -0.0021    0.0028   -0.0797    0.1145   -0.1022   -0.0502   -0.2890
      117 C43    2px       -0.0010   -0.1188    0.1328    0.0501    0.5855    0.0210    0.0378
      118 C43    2py       -0.0014   -0.1018    0.1574    0.4984   -0.0494   -0.0075   -0.0355
      119 C43    2pz        0.0033    0.1694   -0.1211    0.2596    0.0533    0.0135    0.1143
      120 H44    1s         0.0015    0.0891   -0.0717   -0.1610   -0.5769    0.0022    0.0930
      121 H45    1s        -0.0031   -0.2342    0.2193   -0.3340    0.3633    0.0237    0.0508
      122 C46    1s         0.0009    0.0112    0.0040    0.0250   -0.0259    0.0000   -0.0068
      123 C46    2s        -0.0049   -0.0618   -0.0254   -0.1180    0.1394   -0.0023    0.0293
      124 C46    2px       -0.0032   -0.1400    0.1172   -0.0350    0.3776    0.0076    0.0011
      125 C46    2py       -0.0014   -0.0634    0.0656    0.4552   -0.1128   -0.0419   -0.2468
      126 C46    2pz        0.0088    0.2959   -0.1919    0.3913    0.0548    0.0024    0.0000
      127 H47    1s         0.0023    0.0484   -0.0378   -0.4857   -0.1756    0.0314    0.1884
      128 H48    1s        -0.0000   -0.0888    0.1172   -0.0155    0.3542    0.0159    0.0241
      129 C49    1s        -0.0007    0.0039   -0.0193   -0.0980    0.0446    0.0061    0.0406
      130 C49    2s         0.0037   -0.0230    0.1087    0.5543   -0.2520   -0.0363   -0.2440
      131 C49    2px       -0.0014   -0.0962    0.0888   -0.1268   -0.0169   -0.0012   -0.0197
      132 C49    2py       -0.0046   -0.0447   -0.0182    0.2973   -0.1291   -0.0432   -0.2111
      133 C49    2pz        0.0080    0.3237   -0.2303    0.1729   -0.0451    0.0161    0.0996
      134 C50    1s        -0.0008   -0.0264    0.0228    0.0371   -0.0259   -0.0052   -0.0321
      135 C50    2s         0.0045    0.1493   -0.1294   -0.2072    0.1481    0.0296    0.1843
      136 C50    2px       -0.0007   -0.0660    0.0605   -0.0133   -0.0071   -0.0055   -0.0323
      137 C50    2py       -0.0041   -0.1084    0.0710    0.4656   -0.1943   -0.0552   -0.3049
      138 C50    2pz        0.0047    0.2302   -0.1852    0.0111    0.0276    0.0141    0.0765
      139 H51    1s        -0.0003   -0.0384    0.0473   -0.0852   -0.0055    0.0042    0.0125
      140 H52    1s         0.0016    0.1415   -0.1232    0.2560   -0.1005   -0.0154   -0.0889
      141 H53    1s        -0.0019   -0.0999    0.0931   -0.2310    0.0779    0.0209    0.1052
      142 H54    1s         0.1078   -0.1676   -0.2041    0.0290   -0.0139   -0.2758    0.2654
--
 
 
++    Molecular charges:
      ------------------
 
      Mulliken charges per centre and basis function type
      ---------------------------------------------------
 
                C1      H2      H3      N4      H5      C6      H7      C8      H9      C10     C11     H12   
      1s       1.9920  0.8770  0.8657  1.9947  0.7147  1.9935  0.8254  1.9926  0.8927  1.9930  1.9920  0.9210
      2s       1.1630  0.0000  0.0000  1.4315  0.0000  1.1514  0.0000  1.1078  0.0000  1.1490  1.1789  0.0000
      2px      0.9041  0.0000  0.0000  1.2230  0.0000  0.8421  0.0000  1.0904  0.0000  0.8418  1.0574  0.0000
      2pz      0.9863  0.0000  0.0000  1.2043  0.0000  1.0882  0.0000  0.8764  0.0000  0.9922  0.9666  0.0000
      2py      1.0466  0.0000  0.0000  1.4205  0.0000  0.7082  0.0000  1.0511  0.0000  0.9261  1.0127  0.0000
      Total    6.0920  0.8770  0.8657  7.2741  0.7147  5.7833  0.8254  6.1183  0.8927  5.9022  6.2074  0.9210
 
      N-E     -0.0920  0.1230  0.1343 -0.2741  0.2853  0.2167  0.1746 -0.1183  0.1073  0.0978 -0.2074  0.0790
 
                H13     H14     C15     H16     C17     H18     C19     H20     C21     C22     H23     H24   
      1s       0.9107  0.8907  1.9927  0.9075  1.9930  0.9031  1.9928  0.9222  1.9929  1.9920  0.9144  0.9476
      2s       0.0000  0.0000  1.1227  0.0000  1.1576  0.0000  1.1360  0.0000  1.1459  1.1785  0.0000  0.0000
      2px      0.0000  0.0000  1.0071  0.0000  0.9624  0.0000  1.0030  0.0000  0.9331  1.0369  0.0000  0.0000
      2pz      0.0000  0.0000  0.9297  0.0000  0.9956  0.0000  0.9378  0.0000  0.9420  1.0000  0.0000  0.0000
      2py      0.0000  0.0000  1.0392  0.0000  0.9189  0.0000  1.0187  0.0000  0.9467  0.9903  0.0000  0.0000
      Total    0.9107  0.8907  6.0914  0.9075  6.0277  0.9031  6.0884  0.9222  5.9605  6.1976  0.9144  0.9476
 
      N-E      0.0893  0.1093 -0.0914  0.0925 -0.0277  0.0969 -0.0884  0.0778  0.0395 -0.1976  0.0856  0.0524
 
                H25     C26     H27     C28     H29     C30     C31     C32     H33     H34     H35     C36   
      1s       0.9127  1.9929  0.8997  1.9929  0.9318  1.9929  1.9919  1.9921  0.9367  0.9458  0.9310  1.9921
      2s       0.0000  1.1492  0.0000  1.1473  0.0000  1.1445  1.1538  1.1853  0.0000  0.0000  0.0000  1.1861
      2px      0.0000  0.9871  0.0000  0.9869  0.0000  0.9944  0.9514  1.0108  0.0000  0.0000  0.0000  0.9697
      2pz      0.0000  0.9525  0.0000  0.9564  0.0000  0.9332  0.9288  1.0152  0.0000  0.0000  0.0000  1.0280
      2py      0.0000  0.9949  0.0000  0.9830  0.0000  0.9473  0.9342  0.9796  0.0000  0.0000  0.0000  1.0102
      Total    0.9127  6.0765  0.8997  6.0665  0.9318  6.0123  5.9601  6.1830  0.9367  0.9458  0.9310  6.1861
 
      N-E      0.0873 -0.0765  0.1003 -0.0665  0.0682 -0.0123  0.0399 -0.1830  0.0633  0.0542  0.0690 -0.1861
 
                H37     H38     H39     C40     H41     H42     C43     H44     H45     C46     H47     H48   
      1s       0.9438  0.9537  0.9122  1.9920  0.9529  0.9467  1.9920  0.9458  0.9685  1.9920  0.9505  0.9418
      2s       0.0000  0.0000  0.0000  1.1735  0.0000  0.0000  1.1715  0.0000  0.0000  1.1748  0.0000  0.0000
      2px      0.0000  0.0000  0.0000  1.0009  0.0000  0.0000  1.0046  0.0000  0.0000  1.0079  0.0000  0.0000
      2pz      0.0000  0.0000  0.0000  0.9763  0.0000  0.0000  0.9730  0.0000  0.0000  0.9632  0.0000  0.0000
      2py      0.0000  0.0000  0.0000  0.9563  0.0000  0.0000  0.9643  0.0000  0.0000  0.9778  0.0000  0.0000
      Total    0.9438  0.9537  0.9122  6.0991  0.9529  0.9467  6.1054  0.9458  0.9685  6.1156  0.9505  0.9418
 
      N-E      0.0562  0.0463  0.0878 -0.0991  0.0471  0.0533 -0.1054  0.0542  0.0315 -0.1156  0.0495  0.0582
 
                C49     C50     H51     H52     H53     H54   
      1s       1.9929  1.9920  0.9338  0.9338  0.9419  0.8779
      2s       1.1422  1.1828  0.0000  0.0000  0.0000  0.0000
      2px      1.0063  1.0250  0.0000  0.0000  0.0000  0.0000
      2pz      0.9210  1.0058  0.0000  0.0000  0.0000  0.0000
      2py      0.9384  0.9924  0.0000  0.0000  0.0000  0.0000
      Total    6.0008  6.1981  0.9338  0.9338  0.9419  0.8779
 
      N-E     -0.0008 -0.1981  0.0662  0.0662  0.0581  0.1221
 
      Total electronic charge=  164.000000
 
      Total            charge=    1.000000
--
 
 
++    Molecular properties:
      ---------------------
 
      Charge (e):
                      =    1.0000
      Dipole Moment (Debye):
      Origin of the operator (Ang)=    0.0000    0.0000    0.0000
                   X= -7.9642E+00               Y= -4.8805E+00               Z= -8.0065E+01           Total=  8.0608E+01
      Center of Charge (Ang)
                     X=   -1.65810271               Y=   -1.01609361               Z=  -16.66906831
      Quadrupole Moment (Debye*Ang):
      Origin of the operator (Ang)=   -5.2590    1.5064  -11.8482
                  XX= -4.7042E+01              XY= -5.7254E+01              XZ= -9.1334E+01              YY= -8.9201E+01
                  YZ=  6.1342E+01              ZZ= -3.4000E+00
      In traceless form (Debye*Ang)
                  XX= -7.4147E-01              XY= -8.5880E+01              XZ= -1.3700E+02              YY= -6.3980E+01
                  YZ=  9.2013E+01              ZZ=  6.4722E+01


      Electric potential:
    1    -14.28154835
    2     -0.93641156
    3     -0.92927505
    4    -17.73167942
    5     -0.77442553
    6    -14.19078219
    7     -0.81706101
    8    -14.38297522
    9     -0.94951785
   10    -14.33776498
   11    -14.37021252
   12     -0.96512160
   13     -0.99589706
   14     -0.97836474
   15    -14.42709578
   16     -0.99634181
   17    -14.41506390
   18     -0.98233326
   19    -14.46906563
   20     -1.03822567
   21    -14.44391561
   22    -14.44366030
   23     -1.04020049
   24     -1.08587074
   25     -1.05832445
   26    -14.48257384
   27     -1.03751845
   28    -14.49956061
   29     -1.07603388
   30    -14.51767281
   31    -14.46528972
   32    -14.49366251
   33     -1.10246953
   34     -1.11838731
   35     -1.10599343
   36    -14.49563931
   37     -1.11416333
   38     -1.12441631
   39     -1.07597689
   40    -14.50186637
   41     -1.13462630
   42     -1.13253219
   43    -14.50686276
   44     -1.13528368
   45     -1.15727779
   46    -14.50123259
   47     -1.14070702
   48     -1.12979975
   49    -14.53021609
   50    -14.49687986
   51     -1.11414192
   52     -1.10671633
   53     -1.12343918
   54     -0.92685513


      Electric field:
                    X               Y               Z
    1      0.03408521     -0.01874945      0.03575049
    2      0.02698950      0.03395331      0.04208443
    3     -0.01036358     -0.04848716      0.03281516
    4      0.04569836     -0.02194858      0.01358769
    5      0.02261011     -0.01368153     -0.08773017
    6     -0.05444377      0.02592681      0.04259906
    7     -0.04840566      0.01412413     -0.05574471
    8     -0.00331561     -0.00641169      0.02814643
    9      0.01999545     -0.03385658      0.04036802
   10     -0.01017657      0.00910765      0.01207893
   11     -0.00771271      0.01359484     -0.00488559
   12      0.00153180      0.01589633     -0.04148618
   13      0.01145049      0.05559351      0.00510056
   14     -0.04725357      0.00588451     -0.00677217
   15     -0.00309210      0.00393231      0.01517282
   16      0.02335424     -0.02098104      0.04264835
   17      0.00016308      0.00328032      0.01518015
   18     -0.02650152      0.02352873     -0.03688388
   19     -0.00382960      0.00280358      0.00545795
   20      0.01804415     -0.02839427      0.03672526
   21     -0.00127123      0.00071800      0.00114043
   22     -0.00232049      0.00439019      0.00252169
   23      0.01048307      0.00168266     -0.03572181
   24      0.00781872      0.05582217      0.01430001
   25     -0.04710271     -0.00090535     -0.00047434
   26     -0.00782932      0.00636242      0.00482870
   27      0.02718573     -0.00909049      0.02841995
   28      0.00294684      0.00160653      0.00713853
   29     -0.03834152      0.02153170     -0.03245118
   30     -0.00434291      0.00551788      0.00768675
   31     -0.00357703     -0.00156682      0.00350428
   32     -0.00092814      0.00605072      0.00323852
   33      0.01594488     -0.00567524     -0.03487186
   34     -0.04647965      0.00585161     -0.00813967
   35      0.00324469     -0.03274954      0.02566361
   36     -0.00775098      0.00314314      0.00245871
   37     -0.00162362     -0.03289534      0.03074683
   38      0.01869191      0.03865665      0.02585349
   39      0.01715492     -0.01085989     -0.01542699
   40      0.00026468      0.00544083      0.00075077
   41      0.00866469     -0.02975887      0.03338218
   42     -0.04674838     -0.00038805     -0.00472338
   43     -0.00405343     -0.00163411     -0.00156548
   44      0.04120595      0.00563985      0.01551398
   45     -0.02894783      0.00784330      0.04556070
   46      0.00429919     -0.00361498      0.00094368
   47      0.01897314      0.03816008      0.01965514
   48     -0.04741954      0.00592850      0.00097739
   49      0.00002078     -0.00218249      0.00350594
   50      0.00027191     -0.00469070      0.00618409
   51     -0.03999194      0.01648753     -0.01011465
   52      0.02566069     -0.00845102     -0.03495028
   53      0.02179351      0.03302549      0.02465624
   54      0.07745602     -0.02904372     -0.04729458
--
 
 
  Input file to MOLDEN was generated!
 
 ###############################################################################
 ###############################################################################
 ###                                                                         ###
 ###                                                                         ###
 ###    WARNING: RunFile label nBas                                          ###
 ###    was used      506 times                                              ###
 ###                                                                         ###
 ###                                                                         ###
 ###############################################################################
 ###############################################################################
--- Stop Module: scf at Fri Jul  1 09:26:00 2022 /rc=_RC_ALL_IS_WELL_ ---
--- Module scf spent 48 seconds ---

.##################.
.# Happy landing! #.
.##################.

    Timing: Wall=90.79 User=58.90 System=2.45
 /\  /\  /\  /\  /\  /\  /\  /\  /\  /\  /\  /\  /\  /\  /\  /\  /\  /\  /\  /\ 
 ||  ||  ||  ||  ||  ||  ||  ||  ||  ||  ||  ||  ||  ||  ||  ||  ||  ||  ||  || 
End SP Molcas calculation of STEP : 0
================================================================================

